Created from lammps.lmp
458          atoms
7            atom types
  0.000000000000  18.538000000000 xlo xhi
  0.000000000000  18.538000000000 ylo yhi
  0.000000000000  18.538000000000 zlo zhi
  0.000000000000   0.000000000000   0.000000000000 xy xz yz

Masses

1             15.999000000000 # 8
2              1.008000000000 # 1
3             12.011000000000 # 6
4             32.065000000000 # 16
5             14.007000000000 # 7
6             18.998000000000 # 9
7              6.941000000000 # 3

Atoms # atomic

1            1              2.276000000000   3.949000000000   4.250000000000
2            1             12.867000000000  14.948000000000  17.517000000000
3            1             14.408000000000   3.537000000000  16.209000000000
4            1             18.490000000000  17.316000000000   5.380000000000
5            1             17.520000000000   8.190000000000   0.458000000000
6            1             14.194000000000  14.001000000000   1.113000000000
7            1              1.008000000000  17.535000000000   2.536000000000
8            1             16.372000000000   5.679000000000  13.760000000000
9            1              1.904000000000  14.923000000000   3.294000000000
10           1              3.776000000000   6.247000000000   5.716000000000
11           1             12.300000000000  17.505000000000   2.011000000000
12           1              8.686000000000  13.456000000000  12.272000000000
13           1             10.359000000000  12.424000000000  14.871000000000
14           1              2.355000000000   9.013000000000   2.207000000000
15           1             10.028000000000   2.279000000000   2.814000000000
16           1              0.162000000000   2.101000000000   4.350000000000
17           1             14.228000000000   7.473000000000  17.501000000000
18           1             16.590000000000  13.622000000000   9.592000000000
19           1             18.211000000000   5.596000000000  11.555000000000
20           1              1.203000000000   6.918000000000   3.601000000000
21           1              2.410000000000  15.831000000000   6.329000000000
22           1              6.794000000000   3.703000000000   3.281000000000
23           1              2.086000000000  13.389000000000   8.278000000000
24           1             16.581000000000   0.020000000000   3.450000000000
25           1              8.679000000000  10.482000000000  13.550000000000
26           1              9.263000000000   8.481000000000  14.839000000000
27           1              9.933000000000  18.193000000000  14.758000000000
28           1              7.690000000000   0.781000000000  14.330000000000
29           1              5.664000000000  15.008000000000   5.357000000000
30           1              3.936000000000  13.121000000000   5.729000000000
31           1             11.024000000000   4.422000000000   7.019000000000
32           1              9.654000000000   4.098000000000   4.889000000000
33           1              9.363000000000  18.317000000000   8.319000000000
34           1             10.009000000000   1.523000000000  10.056000000000
35           1              9.624000000000   5.273000000000   1.787000000000
36           1              9.579000000000   7.719000000000   1.452000000000
37           1             16.807000000000  11.847000000000   6.841000000000
38           1              0.136000000000  13.288000000000   5.815000000000
39           1              2.479000000000   6.965000000000  10.753000000000
40           1              4.472000000000   7.743000000000  12.005000000000
41           1             12.937000000000   7.054000000000   9.752000000000
42           1             15.256000000000   6.867000000000   8.721000000000
43           1              6.557000000000   4.792000000000  16.641000000000
44           1              5.581000000000   5.294000000000  14.344000000000
45           1              0.855000000000   6.957000000000  14.223000000000
46           1              2.241000000000   4.896000000000  13.522000000000
47           1              0.326000000000  15.626000000000   9.354000000000
48           1             16.543000000000  16.241000000000  10.216000000000
49           1              8.824000000000  18.459000000000   4.080000000000
50           1             10.287000000000  16.491000000000   3.521000000000
51           1              4.367000000000   6.760000000000   3.107000000000
52           1              3.500000000000   7.119000000000   0.773000000000
53           1              9.568000000000   4.819000000000  12.325000000000
54           1              9.452000000000   6.524000000000  10.399000000000
55           1             14.341000000000  12.040000000000  13.022000000000
56           1             12.722000000000  13.597000000000  14.146000000000
57           1             18.084000000000   7.545000000000   6.252000000000
58           1              1.937000000000   7.538000000000   7.252000000000
59           1             11.709000000000  17.881000000000  17.652000000000
60           1             10.992000000000   1.652000000000  18.530000000000
61           1              6.717000000000   6.468000000000   7.250000000000
62           1              7.010000000000   6.004000000000   4.791000000000
63           1             12.690000000000   8.857000000000  15.211000000000
64           1             14.253000000000   7.566000000000  13.895000000000
65           1             16.976000000000   8.219000000000  12.619000000000
66           1             16.706000000000  10.381000000000  11.425000000000
67           1             13.836000000000  10.753000000000   3.644000000000
68           1             12.346000000000   8.938000000000   4.700000000000
69           1             12.981000000000   0.842000000000  12.382000000000
70           1             14.220000000000  17.434000000000  11.369000000000
71           1             17.590000000000   2.636000000000  11.794000000000
72           1             15.565000000000   3.102000000000  13.209000000000
73           1              5.175000000000   1.552000000000   0.093000000000
74           1              2.935000000000   0.525000000000   0.477000000000
75           1              2.754000000000  16.553000000000  17.475000000000
76           1              4.132000000000  16.630000000000  15.391000000000
77           1              1.405000000000   2.334000000000   6.721000000000
78           1              2.814000000000   0.458000000000   7.667000000000
79           1              5.930000000000   3.395000000000   6.903000000000
80           1              5.558000000000   1.985000000000   4.834000000000
81           1              9.849000000000  14.274000000000  10.137000000000
82           1             11.114000000000  12.216000000000  10.635000000000
83           1             10.598000000000  10.250000000000   7.845000000000
84           1              8.771000000000  11.133000000000   6.577000000000
85           1              5.844000000000  14.059000000000  16.530000000000
86           1              7.549000000000  12.294000000000  16.900000000000
87           1              9.825000000000  15.758000000000   0.181000000000
88           1              9.924000000000  13.860000000000  16.956000000000
89           1             17.545000000000   4.862000000000   0.068000000000
90           1              0.962000000000   4.099000000000   1.490000000000
91           1             15.127000000000   2.443000000000   3.311000000000
92           1             14.848000000000   3.920000000000   1.293000000000
93           1              6.535000000000  12.576000000000  13.720000000000
94           1              4.455000000000  14.107000000000  13.869000000000
95           1              4.473000000000  14.273000000000  10.113000000000
96           1              6.571000000000  15.627000000000   9.889000000000
97           1             17.466000000000  10.880000000000   0.164000000000
98           1              0.956000000000  12.007000000000   1.098000000000
99           1              2.291000000000  13.463000000000  16.622000000000
100          1              1.009000000000  12.296000000000  14.791000000000
101          1             13.077000000000  18.500000000000   4.462000000000
102          1             12.403000000000  16.946000000000   6.311000000000
103          1             14.672000000000  15.358000000000   7.417000000000
104          1             16.611000000000  15.300000000000   5.766000000000
105          2              1.549000000000   3.274000000000   4.240000000000
106          2              2.716000000000   3.741000000000   5.069000000000
107          2             12.264000000000  14.435000000000  16.892000000000
108          2             13.430000000000  14.354000000000  18.092000000000
109          2             15.151000000000   3.530000000000  15.568000000000
110          2             14.636000000000   4.320000000000  16.797000000000
111          2             17.656000000000  16.774000000000   5.264000000000
112          2              0.808000000000  16.823000000000   5.587000000000
113          2             17.516000000000   9.117000000000   0.147000000000
114          2             18.421000000000   7.822000000000   0.487000000000
115          2             14.563000000000  13.145000000000   1.447000000000
116          2             14.649000000000  14.671000000000   1.633000000000
117          2              1.273000000000  16.664000000000   2.865000000000
118          2              1.468000000000  17.592000000000   1.701000000000
119          2             16.257000000000   4.747000000000  13.488000000000
120          2             15.566000000000   6.146000000000  14.108000000000
121          2              2.870000000000  14.689000000000   3.250000000000
122          2              1.422000000000  14.102000000000   2.973000000000
123          2              3.315000000000   6.676000000000   6.447000000000
124          2              4.399000000000   5.677000000000   6.129000000000
125          2             11.362000000000  17.770000000000   2.091000000000
126          2             12.628000000000  17.723000000000   2.892000000000
127          2              7.893000000000  13.971000000000  12.241000000000
128          2              9.204000000000  13.603000000000  11.439000000000
129          2             10.358000000000  11.943000000000  15.697000000000
130          2             11.273000000000  12.658000000000  14.750000000000
131          2              2.021000000000   9.957000000000   1.992000000000
132          2              2.814000000000   8.499000000000   1.439000000000
133          2             10.601000000000   1.957000000000   2.082000000000
134          2              9.783000000000   1.413000000000   3.191000000000
135          2             17.944000000000   2.635000000000   3.869000000000
136          2              0.207000000000   2.475000000000   5.320000000000
137          2             13.811000000000   8.088000000000  16.933000000000
138          2             15.164000000000   7.831000000000  17.448000000000
139          2             17.585000000000  13.508000000000   9.355000000000
140          2             16.094000000000  12.845000000000   9.350000000000
141          2              0.572000000000   5.876000000000  11.227000000000
142          2             18.324000000000   4.671000000000  11.598000000000
143          2              0.620000000000   7.188000000000   4.300000000000
144          2              1.309000000000   7.759000000000   3.092000000000
145          2              2.527000000000  16.346000000000   7.218000000000
146          2              3.261000000000  15.918000000000   5.778000000000
147          2              6.547000000000   4.559000000000   3.695000000000
148          2              6.254000000000   3.020000000000   3.799000000000
149          2              2.908000000000  13.809000000000   8.557000000000
150          2              1.428000000000  13.921000000000   8.802000000000
151          2             16.123000000000  18.342000000000   4.297000000000
152          2             16.367000000000   0.992000000000   3.332000000000
153          2              6.854000000000  10.029000000000  15.607000000000
154          2              6.389000000000   8.348000000000  15.311000000000
155          2              5.984000000000   9.536000000000  14.126000000000
156          2              8.492000000000   7.658000000000  12.098000000000
157          2              6.741000000000   8.192000000000  12.404000000000
158          2              7.558000000000   6.972000000000  13.313000000000
159          2              6.966000000000  16.863000000000  13.843000000000
160          2              7.422000000000  16.239000000000  15.419000000000
161          2              8.646000000000  16.148000000000  14.111000000000
162          2              8.911000000000   0.882000000000  17.185000000000
163          2              8.670000000000  17.609000000000  17.285000000000
164          2              7.277000000000   0.235000000000  17.042000000000
165          2              5.913000000000  13.061000000000   3.560000000000
166          2              5.413000000000  11.676000000000   4.429000000000
167          2              7.049000000000  12.438000000000   4.781000000000
168          2              6.174000000000  12.000000000000   7.059000000000
169          2              5.460000000000  13.370000000000   8.029000000000
170          2              7.072000000000  13.463000000000   7.352000000000
171          2             12.966000000000   2.961000000000   5.602000000000
172          2             12.761000000000   4.552000000000   4.754000000000
173          2             12.047000000000   2.955000000000   4.081000000000
174          2             10.793000000000   1.284000000000   5.611000000000
175          2              9.235000000000   1.969000000000   6.358000000000
176          2             10.571000000000   1.672000000000   7.362000000000
177          2              9.443000000000  18.320000000000  11.980000000000
178          2              8.851000000000  16.967000000000  11.005000000000
179          2              7.878000000000  18.466000000000  11.098000000000
180          2             11.658000000000  17.164000000000  10.525000000000
181          2             12.171000000000   0.137000000000   9.532000000000
182          2             11.540000000000  17.249000000000   8.711000000000
183          2             11.974000000000   6.761000000000   2.651000000000
184          2             12.458000000000   7.208000000000   0.954000000000
185          2             12.326000000000   5.466000000000   1.383000000000
186          2             11.118000000000   5.341000000000  17.695000000000
187          2             10.549000000000   6.902000000000  17.265000000000
188          2              9.369000000000   5.504000000000  17.636000000000
189          2             18.504000000000   9.722000000000   6.078000000000
190          2              1.326000000000  10.986000000000   6.625000000000
191          2              0.930000000000  10.592000000000   4.911000000000
192          2             16.326000000000  12.358000000000   3.981000000000
193          2             16.818000000000  10.675000000000   4.275000000000
194          2             17.875000000000  11.827000000000   3.489000000000
195          2              4.127000000000   5.267000000000   9.725000000000
196          2              5.293000000000   5.484000000000  11.064000000000
197          2              5.674000000000   6.191000000000   9.483000000000
198          2              4.766000000000   8.290000000000   8.675000000000
199          2              4.567000000000   9.691000000000   9.907000000000
200          2              3.098000000000   8.950000000000   9.139000000000
201          2             12.075000000000   6.626000000000   7.213000000000
202          2             13.691000000000   6.073000000000   6.716000000000
203          2             13.032000000000   7.807000000000   6.401000000000
204          2             14.647000000000   9.360000000000   7.658000000000
205          2             14.543000000000   9.597000000000   9.384000000000
206          2             13.013000000000   9.548000000000   8.391000000000
207          2              8.645000000000   4.613000000000  14.649000000000
208          2              7.718000000000   4.315000000000  13.233000000000
209          2              7.923000000000   2.951000000000  14.374000000000
210          2              5.185000000000   2.172000000000  16.229000000000
211          2              5.902000000000   2.089000000000  14.518000000000
212          2              4.242000000000   2.757000000000  14.847000000000
213          2              2.459000000000   7.274000000000  16.168000000000
214          2              3.739000000000   6.677000000000  14.868000000000
215          2              3.387000000000   5.655000000000  16.312000000000
216          2              1.119000000000   4.079000000000  16.211000000000
217          2             18.396000000000   4.615000000000  15.094000000000
218          2              0.479000000000   5.757000000000  16.539000000000
219          2             18.112000000000  18.177000000000  11.630000000000
220          2              1.162000000000  17.428000000000  11.242000000000
221          2              0.032000000000  16.513000000000  12.270000000000
222          2             18.488000000000  17.625000000000   7.837000000000
223          2              0.161000000000   0.246000000000   9.128000000000
224          2             17.011000000000  18.367000000000   8.426000000000
225          2              9.281000000000  15.176000000000   5.602000000000
226          2              8.301000000000  16.592000000000   6.265000000000
227          2             10.120000000000  16.668000000000   6.239000000000
228          2              7.334000000000  15.355000000000   3.895000000000
229          2              8.252000000000  15.842000000000   2.432000000000
230          2              6.916000000000  16.950000000000   3.248000000000
231          2              6.333000000000   8.565000000000   1.081000000000
232          2              6.551000000000   6.908000000000   0.211000000000
233          2              6.998000000000   7.006000000000   1.823000000000
234          2              4.645000000000   4.853000000000   0.173000000000
235          2              4.091000000000   4.287000000000   1.781000000000
236          2              5.815000000000   4.727000000000   1.695000000000
237          2             12.151000000000   4.889000000000  10.952000000000
238          2             11.397000000000   4.823000000000   9.336000000000
239          2             11.236000000000   3.451000000000  10.289000000000
240          2              8.428000000000   2.984000000000  10.512000000000
241          2              8.592000000000   3.922000000000   8.976000000000
242          2              7.471000000000   4.487000000000  10.212000000000
243          2             16.141000000000  14.157000000000  14.066000000000
244          2             15.305000000000  13.292000000000  15.427000000000
245          2             14.765000000000  14.886000000000  15.192000000000
246          2             13.000000000000  14.852000000000  12.064000000000
247          2             14.440000000000  14.272000000000  11.103000000000
248          2             14.597000000000  15.541000000000  12.360000000000
249          2             17.824000000000   6.801000000000   9.400000000000
250          2             17.449000000000   8.367000000000   8.581000000000
251          2              0.500000000000   8.266000000000   9.434000000000
252          2              0.107000000000   4.874000000000   8.214000000000
253          2              1.633000000000   5.096000000000   7.382000000000
254          2             18.522000000000   4.936000000000   6.435000000000
255          2             14.227000000000   0.094000000000  17.890000000000
256          2             13.689000000000   0.783000000000   0.914000000000
257          2             14.177000000000   1.831000000000  17.911000000000
258          2             11.746000000000   2.516000000000  16.211000000000
259          2             11.020000000000   1.075000000000  15.522000000000
260          2             12.813000000000   1.046000000000  15.692000000000
261          2              7.043000000000   8.837000000000   4.546000000000
262          2              6.431000000000   9.186000000000   6.173000000000
263          2              5.346000000000   8.363000000000   5.052000000000
264          2              9.564000000000   6.481000000000   5.850000000000
265          2              9.129000000000   7.958000000000   6.745000000000
266          2              9.002000000000   7.931000000000   4.982000000000
267          2             11.801000000000   6.247000000000  14.555000000000
268          2             11.784000000000   6.561000000000  12.827000000000
269          2             10.709000000000   7.438000000000  13.985000000000
270          2             12.787000000000   8.837000000000  11.711000000000
271          2             13.419000000000  10.036000000000  12.854000000000
272          2             11.633000000000   9.663000000000  12.993000000000
273          2             17.133000000000   9.726000000000  14.774000000000
274          2             16.441000000000  10.942000000000  13.946000000000
275          2             18.210000000000  11.129000000000  14.163000000000
276          2              0.684000000000   9.231000000000  10.952000000000
277          2              1.352000000000   8.942000000000  12.640000000000
278          2              1.242000000000  10.580000000000  12.036000000000
279          2             10.827000000000  11.104000000000   5.268000000000
280          2             10.585000000000  11.839000000000   3.585000000000
281          2             11.913000000000  12.378000000000   4.584000000000
282          2             12.565000000000   9.130000000000   1.715000000000
283          2             11.479000000000  10.522000000000   1.484000000000
284          2             10.886000000000   9.094000000000   2.486000000000
285          3              6.762000000000   9.264000000000  14.866000000000
286          3              7.742000000000   7.949000000000  12.768000000000
287          3              7.789000000000  16.744000000000  14.562000000000
288          3              8.333000000000  18.538000000000  16.840000000000
289          3              6.040000000000  12.567000000000   4.466000000000
290          3              6.060000000000  13.106000000000   7.167000000000
291          3             12.272000000000   3.592000000000   4.965000000000
292          3             10.302000000000   1.898000000000   6.324000000000
293          3              8.916000000000  18.061000000000  11.056000000000
294          3             11.474000000000  17.823000000000   9.674000000000
295          3             11.882000000000   6.469000000000   1.563000000000
296          3             10.326000000000   6.060000000000  17.868000000000
297          3              0.526000000000  10.650000000000   5.907000000000
298          3             17.175000000000  11.698000000000   4.231000000000
299          3              4.858000000000   5.958000000000  10.162000000000
300          3              4.131000000000   8.698000000000   9.526000000000
301          3             13.088000000000   6.969000000000   7.083000000000
302          3             14.017000000000   9.201000000000   8.549000000000
303          3              7.801000000000   4.051000000000  14.290000000000
304          3              5.314000000000   2.685000000000  15.266000000000
305          3              3.016000000000   6.451000000000  15.620000000000
306          3              0.659000000000   4.956000000000  15.772000000000
307          3              0.097000000000  17.270000000000  11.435000000000
308          3             18.014000000000  18.022000000000   8.753000000000
309          3              9.203000000000  16.301000000000   5.735000000000
310          3              7.710000000000  16.210000000000   3.313000000000
311          3              6.260000000000   7.423000000000   1.175000000000
312          3              4.877000000000   4.877000000000   1.245000000000
313          3             11.300000000000   4.523000000000  10.354000000000
314          3              8.420000000000   4.001000000000  10.057000000000
315          3             15.196000000000  13.992000000000  14.630000000000
316          3             14.094000000000  14.597000000000  12.129000000000
317          3             18.214000000000   7.646000000000   8.877000000000
318          3              0.554000000000   5.321000000000   7.307000000000
319          3             13.657000000000   0.945000000000  18.340000000000
320          3             11.886000000000   1.434000000000  16.099000000000
321          3              6.404000000000   8.472000000000   5.364000000000
322          3              8.882000000000   7.301000000000   5.902000000000
323          3             11.619000000000   6.954000000000  13.780000000000
324          3             12.636000000000   9.301000000000  12.733000000000
325          3             17.377000000000  10.411000000000  14.027000000000
326          3              0.755000000000   9.587000000000  12.033000000000
327          3             11.261000000000  11.506000000000   4.375000000000
328          3             11.778000000000   9.707000000000   2.199000000000
329          3             14.927000000000  18.199000000000  13.711000000000
330          3             15.472000000000   3.534000000000  10.462000000000
331          3              5.095000000000  17.717000000000   1.131000000000
332          3              2.145000000000  18.305000000000  15.394000000000
333          3              2.983000000000   2.855000000000   8.821000000000
334          3              6.059000000000   0.695000000000   7.033000000000
335          3             11.992000000000  13.961000000000   8.626000000000
336          3              8.168000000000  10.055000000000   8.973000000000
337          3              5.773000000000  12.739000000000   0.602000000000
338          3              9.760000000000  13.095000000000   1.034000000000
339          3             18.180000000000   2.250000000000   0.064000000000
340          3             15.776000000000   5.165000000000   3.548000000000
341          3              4.528000000000  11.909000000000  12.308000000000
342          3              4.805000000000  16.640000000000  11.519000000000
343          3             17.674000000000  13.605000000000  18.324000000000
344          3              2.883000000000  10.901000000000  15.989000000000
345          3             14.121000000000   0.343000000000   6.889000000000
346          3             14.207000000000  14.110000000000   5.047000000000
347          4              8.282000000000   9.133000000000  14.007000000000
348          4              8.439000000000  18.291000000000  15.026000000000
349          4              5.331000000000  13.598000000000   5.678000000000
350          4             10.748000000000   3.638000000000   5.845000000000
351          4              9.869000000000   0.137000000000   9.680000000000
352          4             10.202000000000   6.449000000000   1.139000000000
353          4             17.861000000000  12.018000000000   5.835000000000
354          4              3.870000000000   7.374000000000  10.737000000000
355          4             13.886000000000   7.419000000000   8.675000000000
356          4              6.256000000000   4.383000000000  15.226000000000
357          4              1.674000000000   5.759000000000  14.551000000000
358          4             17.918000000000  16.621000000000   9.881000000000
359          4              9.094000000000  16.974000000000   4.177000000000
360          4              4.597000000000   6.573000000000   1.628000000000
361          4              9.651000000000   5.096000000000  10.855000000000
362          4             13.979000000000  13.414000000000  13.446000000000
363          4              0.508000000000   7.104000000000   7.356000000000
364          4             11.883000000000   0.772000000000  17.812000000000
365          4              7.109000000000   6.931000000000   5.893000000000
366          4             12.905000000000   8.152000000000  14.007000000000
367          4             17.462000000000   9.604000000000  12.391000000000
368          4             12.512000000000  10.137000000000   3.838000000000
369          4             14.243000000000   0.165000000000  12.114000000000
370          4             16.090000000000   2.507000000000  11.923000000000
371          4              4.281000000000   0.402000000000   0.019000000000
372          4              3.469000000000  17.344000000000  16.419000000000
373          4              2.679000000000   1.822000000000   7.229000000000
374          4              5.313000000000   2.298000000000   6.202000000000
375          4             10.527000000000  13.085000000000   9.611000000000
376          4              9.403000000000  11.024000000000   7.905000000000
377          4              6.795000000000  13.382000000000  17.506000000000
378          4              9.295000000000  14.452000000000  18.189000000000
379          4             18.150000000000   3.906000000000   1.027000000000
380          4             15.652000000000   3.489000000000   2.416000000000
381          4              5.469000000000  13.362000000000  13.116000000000
382          4              5.511000000000  15.041000000000  10.811000000000