458
Lattice="18.398 0.0 0.0 0.0 18.398 0.0 0.0 0.0 18.398" Properties=species:S:1:pos:R:3:forces:R:3 virial="8.681833624201893 -3.046803853174827 -2.6150368582863943 -3.046803853174827 -4.909774359000123 5.0322321575379565 -2.6150368582863943 5.0322321575379565 20.848074639735323" energy=-108878.75321838356 pbc="T T T"
O        3.15800000       3.04900000       1.59300000      -0.86876349       1.24990282       0.51438420
H        3.61400000       2.28600000       1.22400000       0.29409617      -0.64633682      -0.32993273
H        3.29300000       2.97000000       2.55600000      -0.03100802      -0.10169074      -0.13363515
O       15.95400000      11.46100000      18.29800000       2.70806965      -0.65489757       1.88613264
H       15.93900000      12.21600000       0.56800000      -0.35710312      -0.57953596      -0.75824667
H       16.78700000      10.95300000       0.21700000      -1.73045490       0.93608834      -0.88489202
O        6.03800000       2.27000000       7.30000000       0.31329460       2.11242625       1.02143612
H        6.42600000       2.41400000       6.44400000       0.28390123       0.10331722      -1.00656537
H        5.80700000       1.36100000       7.31400000      -0.55226478      -1.80288494       0.08663641
O        5.69600000      14.79800000       1.96300000      -0.07486642       0.35250444      -0.74327205
H        5.64900000      15.37500000       1.16200000       0.08422060      -0.34256199      -0.01299281
H        5.08300000      15.26900000       2.54200000      -0.20042574       0.43665049       0.54886064
O        0.09900000       2.14100000       2.20100000      -1.66995375       1.68993328       0.40417899
H        0.48200000       1.28500000       2.17400000       0.88091452      -2.38980922       0.32622108
H       17.64200000       2.07100000       2.67800000       0.49229019      -0.05504012      -0.27138870
O       11.83800000      14.34400000      16.48400000      -1.68655537      -0.26662805      -0.60582240
H       11.35200000      13.58400000      16.88400000       0.49772088       0.43330599      -0.12894752
H       12.67400000      14.42400000      16.91600000       1.30576570      -0.00312029       0.92378870
O       16.81500000       3.51400000      18.25600000       0.31822804       0.49873338       1.05377032
H       16.53800000       3.50500000       0.83000000       0.08803098      -0.34014155      -1.92190697
H       16.25900000       2.96900000      17.67900000      -0.88119940      -0.13601702       0.59067295
O       12.74700000       3.70300000       8.57400000      -0.86112783       0.71386737       0.20069056
H       13.10700000       2.81900000       8.49700000       0.10574537      -0.95366904      -0.06067958
H       12.00100000       3.81300000       7.94600000       0.42300667      -0.12510372      -0.10376305
O        5.95100000      15.04400000       4.67200000      -0.03180918       0.28116198       0.99714537
H        6.27200000      15.46600000       5.50100000       0.25132638      -0.12524719      -0.58423336
H        5.02000000      14.96000000       4.95300000      -0.32346640      -0.26341725      -0.16402405
O        4.76600000       5.11900000       7.70800000       0.90898326      -0.36769349      -0.63100276
H        4.70800000       5.74400000       6.94600000       0.32804451      -0.57345478       0.11769791
H        5.18700000       4.26400000       7.42600000      -0.33698321       0.50075478      -0.04741783
O        3.24800000      10.87400000      18.08000000       1.37740795      -1.60189716       0.37589480
H        3.62500000       9.92800000      18.21500000      -0.33703823       1.30924852      -0.37766680
H        2.35900000      10.67900000      17.80200000      -1.11873233       0.12573673      -0.29704574
O       12.61100000      15.15600000      13.87000000       0.23901543       1.07352873       0.82895715
H       12.51900000      14.30200000      13.46200000      -0.25138809      -0.92381030      -0.53671320
H       12.38300000      14.98300000      14.81600000      -0.03546786      -0.10624108      -0.51536122
O       10.32500000      13.20500000      13.01400000      -0.99705126       1.01312734       1.77548161
H       10.06900000      14.15700000      13.29300000       0.54409330      -1.62262437      -0.38160162
H        9.96700000      12.67400000      13.80100000       0.59618539       0.83013266      -1.25610741
O       14.50100000      11.12400000      14.46900000       1.46666535       1.37644585      -0.06996127
H       14.80600000      12.07500000      14.35500000      -0.07670116      -1.21395366      -0.06389655
H       13.56400000      11.22900000      14.41000000      -1.77397391      -0.05005784      -0.17487051
O       14.30200000       4.20600000       4.54800000       0.41635574       0.31016917      -1.27815051
H       13.94300000       3.74100000       3.69900000       0.00115031       0.36841700       1.35485989
H       13.89900000       3.83600000       5.34400000      -0.28574934       0.04511824      -0.12142653
O       13.55300000      11.62300000      17.53500000       0.95741565       0.11594905       0.00900606
H       12.60900000      11.52500000      17.60600000      -1.37174227       0.05289891      -0.00242918
H       13.83700000      12.15700000      18.30600000      -0.12708810      -0.21269298      -0.23728096
O       16.63800000      12.50800000      15.78800000      -0.53582720       1.01885628      -1.04733536
H       17.25000000      12.60500000      16.52400000       0.13492122       0.08778415       0.35813362
H       16.52800000      13.44300000      15.42900000       0.25768009      -1.17973947       0.46120041
O       13.47300000      16.34700000       6.81100000       1.01265118      -0.02919642      -1.02747204
H       13.01800000      15.59400000       6.37500000      -0.06733000      -0.09214063      -0.20710443
H       14.27700000      16.49000000       6.21200000      -1.28424608       0.10878133       0.91200225
O       12.06800000       3.62300000      11.54900000       0.86834800       1.19887054      -2.59388592
H       11.46900000       3.11700000      11.01400000      -0.79036386      -0.77283768      -0.48322757
H       11.94600000       3.36700000      12.42400000      -0.16354223      -0.70483302       3.03506566
O        2.83900000       5.60900000       9.13600000      -1.15971932      -0.02384493       1.08802667
H        2.62200000       5.13000000       9.95900000       0.08885270       0.22746603      -0.28883261
H        3.63700000       5.19800000       8.73000000       0.43942573      -0.25949375      -0.31673937
O       15.41000000      18.28600000       5.70600000      -0.55993746      -1.22380098       1.76139967
H       15.83600000       0.36800000       5.01300000       0.72920760       0.64481421      -1.17154896
H       16.09900000      17.87400000       6.26900000      -0.14025523       0.46768113      -0.53474322
O       14.97800000       7.49600000       5.24900000       0.70848862      -0.98136805      -1.56447424
H       15.59900000       7.89100000       5.85000000       0.79639773       0.44046189       0.71093939
H       14.11700000       7.68700000       5.58600000      -1.28949987       0.31217412       0.59102210
O        4.71900000      11.65700000       1.72400000      -0.04820665      -0.63321700      -0.12568119
H        4.19500000      11.58900000       0.86100000       0.15252042       0.33724494       0.73361035
H        4.79700000      10.70500000       1.97100000       0.21469022       0.63586780       0.03102190
O        0.98200000       3.10800000      17.57500000      -3.13790157       1.73795584       1.43933144
H       18.35200000       3.16300000      17.41600000       2.25998598      -0.26882428       0.28919874
H        1.51800000       2.63000000      16.97400000       0.82218229      -1.25061039      -1.64968369
C       14.23300000       8.02500000      12.33500000       1.71114643      -1.33079282       0.03430623
S       12.61000000       7.69700000      11.86000000       0.25718798       0.64134528      -0.94930227
C       11.67600000       7.47600000      13.32300000      -1.46110611       1.35654499       0.06618997
O       12.15400000       8.96500000      11.22800000      -0.50558382      -0.88127808       0.26679003
O       12.59800000       6.45500000      11.07900000      -0.36151667       0.50136619       0.24090827
H       14.73900000       7.08600000      12.64700000      -0.56452431       0.34112371       0.43059657
H       14.28400000       8.81300000      13.04300000      -0.14526271       0.81595200       1.20444777
H       14.83600000       8.37800000      11.51200000      -0.32252486       0.30742837      -1.00708319
H       12.15100000       7.03500000      14.16900000       0.85560715      -0.92065247       0.45558203
H       10.78400000       6.91500000      13.01300000       0.07417119      -0.27479182       0.17563310
H       11.33100000       8.47800000      13.67300000       0.24408564      -0.28225676      -0.31828923
C       10.24600000      17.39500000      15.51800000       1.64523979       0.98492183       0.81095531
S        8.84300000      17.00700000      14.60500000       0.59805767      -1.13649505       0.18792349
C        8.64800000      18.33500000      13.51400000       0.03553728       0.95949978      -0.48248760
O        9.08700000      15.83700000      13.77900000       0.41356301      -0.84255932      -0.78447038
O        7.75500000      16.81800000      15.55600000      -1.28427333       0.36305831       0.46159996
H       10.11800000      18.00900000      16.43200000      -0.67888082       0.03946695      -0.41767831
H       10.93600000      17.98200000      14.86500000       0.04399466      -0.82197506       0.36343112
H       10.65100000      16.45300000      15.90300000       0.36167094      -0.25353445      -0.34820196
H        9.28500000       0.74800000      13.85800000       0.23817468       0.30139862       0.02149700
H        7.63500000       0.26500000      13.64800000      -0.91819449       0.26743126      -0.40019481
H        8.90400000      18.05700000      12.47500000      -0.22102747       0.03444610       0.37965735
C        3.19300000      12.93100000       8.86500000       0.19788703      -0.25777780      -1.87258909
S        4.13800000      14.11900000       7.84500000       0.96245501      -0.47546335      -0.26960487
C        3.39600000      15.69100000       8.31100000       0.99361010       2.08633726      -0.97625206
O        5.61000000      14.00800000       8.17200000      -1.96357427       0.44459725      -0.44902058
O        3.73900000      13.86300000       6.43000000       0.24171457       0.14094994       0.60041177
H        3.81400000      12.38000000       9.55700000       0.25701623       0.02843743       0.40086947
H        2.86200000      12.24600000       8.04700000       0.05269322       0.10803725       0.68906547
H        2.33500000      13.42700000       9.29700000      -0.20956755       0.13440186       0.40007191
H        4.11900000      16.21100000       8.97700000      -0.96245552      -0.63828773       0.25023675
H        2.35300000      15.58300000       8.60900000       0.12196080      -0.32511037       0.72169072
H        3.30900000      16.46100000       7.48700000       0.44269309      -1.19683731      -0.10488713
C        8.84100000      15.99300000       9.95700000       0.84183684       1.02724167       1.59540050
S       10.12700000      17.09900000       9.38200000       0.62463208       0.97232033       1.05510575
C        9.57600000      17.39300000       7.70700000       1.65014957       0.12401871      -1.09746416
O       10.12600000      18.38100000      10.15600000      -0.36993550      -1.55252323      -0.97143742
O       11.42500000      16.36700000       9.41300000      -0.65015594       0.09053626      -0.48297920
H        7.98500000      16.63200000      10.15300000      -0.48485662       0.19394810       0.14557639
H        9.20600000      15.54700000      10.91000000      -0.11131386       0.33738790      -0.39237506
H        8.58700000      15.25700000       9.23900000      -0.07564700      -0.82594176      -1.03650073
H       10.27900000      18.16800000       7.28700000      -0.51489893      -0.44484408       0.38020962
H        8.57100000      17.81200000       7.74800000      -0.38863719      -0.11656817      -0.05992882
H        9.72600000      16.47100000       7.06400000      -0.47133467       0.74967615       0.81123454
C        9.01000000      12.19800000       8.71500000      -0.43390403      -1.50591324       0.31533040
S        8.46000000      11.51000000      10.28900000       1.58910746      -0.01671783      -1.90868276
C        7.97300000      13.00600000      11.06700000      -0.58435832      -1.26758173       1.45454877
O        7.37800000      10.60000000       9.87400000      -0.06148948       0.01725879       1.25489539
O        9.68000000      11.03100000      10.99300000      -0.90654328      -0.76663206      -0.05530803
H        8.11100000      12.69600000       8.35800000      -0.05481747       0.00522088      -0.63357438
H        9.43600000      11.36900000       8.09900000      -0.59822376       0.49441187       0.25261965
H        9.77300000      12.87500000       8.97400000       1.27494023       1.16276145       0.10386795
H        6.94400000      13.19400000      10.85300000      -0.97049331       0.29330427      -0.18056242
H        8.59800000      13.78000000      10.71100000       0.76364238       0.62148042      -0.39719073
H        8.18600000      12.87500000      12.13600000      -0.21480386       0.12839576       0.06199804
C       12.49100000       1.00700000       3.96300000      -0.10487531      -1.08835629       0.69057831
S       13.69000000       1.48200000       2.81900000      -1.31165764       1.24917263      -1.72924905
C       13.31900000       0.41000000       1.42600000       0.74150467      -0.03143174       0.75135971
O       13.26200000       2.87100000       2.49400000       0.29846396      -0.06706929      -0.59351916
O       15.06500000       1.37500000       3.26200000       1.09459121      -0.71970891       0.36844117
H       11.60400000       0.73600000       3.39100000      -0.24805645       0.03691847      -0.27607171
H       12.26200000       1.89000000       4.54600000       0.01687724       0.12638670       0.66219693
H       12.87400000       0.12600000       4.49000000      -0.17827105       0.08740723       0.50763762
H       13.27000000      17.76900000       1.78800000      -0.18732442       0.05927473       0.02288899
H       14.22500000       0.47600000       0.83200000      -0.01049936       0.23162402      -0.61507529
H       12.38600000       0.73400000       0.95100000       0.21701707      -0.02982274       0.02526058
C        0.62500000      12.60200000       6.10700000      -0.32584056      -0.74708037      -0.62132307
S        1.01600000      10.88600000       5.58400000       0.16633856       1.23567434      -2.72728762
C        1.69400000      11.07300000       3.79700000       1.56948120       1.30875641       1.97604772
O        2.09500000      10.48000000       6.42800000       2.00128927      -0.86588437       1.64612888
O       18.27000000      10.00300000       5.43400000      -0.67475420       0.30431580       0.24809194
H        0.31600000      12.51000000       7.17600000       0.04249828       0.26845559      -0.68634525
H       18.19600000      12.88100000       5.42200000       0.32364021       0.26297657       0.71222186
H        1.55100000      13.21400000       5.95400000      -0.59533744      -0.41220906       0.19073987
H        2.82600000      11.22500000       3.69100000      -1.42847984      -0.00359389       0.62450507
H        1.18100000      11.91500000       3.36600000      -0.41910065       0.39717788      -0.46980795
H        1.44100000      10.15000000       3.37500000      -0.66574711      -1.47523844      -0.90295351
C        0.84300000      10.74700000       9.46300000      -1.75951814       0.44071591      -0.13436843
S       18.37300000       9.16000000       9.60100000      -1.04048851       0.96260773      -0.32690859
C       17.74000000       9.11700000      11.32900000      -0.14096177      -0.74026746      -1.40586184
O       17.20500000       9.17400000       8.68600000       0.72136727      -0.19645595       0.53370758
O        0.97000000       8.08700000       9.50400000       0.20510874      -0.54316050      -0.29981791
H        1.18100000      10.79300000       8.42100000       0.49232413      -0.48829881       0.20267956
H        1.62900000      10.74200000      10.22800000      -0.02881744       0.33736630      -0.17992119
H        0.06500000      11.58500000       9.52300000       0.84021910      -1.03111787       0.55549614
H        0.08700000       8.56800000      11.87800000       0.61529383       0.02846520       0.39808239
H       16.81600000       8.49900000      11.34900000       0.43153605       0.68462055      -0.28308568
H       17.58500000      10.13800000      11.64100000      -0.15504010       0.47075154       0.26870447
C       16.61200000       6.17400000      10.21100000       1.78380838      -0.21189543      -0.70387092
S       15.51900000       4.99700000       9.59400000       0.38411616      -0.90982607       0.54820500
C       16.43800000       4.12600000       8.34300000       0.26948454      -0.55527040       0.21232377
O       15.28400000       4.06900000      10.73100000      -0.72222191       0.24170223      -1.10083951
O       14.45100000       5.76700000       8.97000000      -0.83993422      -0.01996102      -0.03907820
H       16.26400000       6.49400000      11.15400000      -0.67965626      -0.01325198       1.41440510
H       16.58100000       7.04900000       9.56400000       0.55831664      -0.00503165      -0.46578469
H       17.58600000       5.65700000      10.36200000      -0.12545545       0.70012379      -0.16956118
H       17.01200000       4.82800000       7.73600000      -0.14499480       0.07119745      -0.21190571
H       15.84600000       3.42000000       7.74100000      -0.43919228       0.54057037       0.01179417
H       17.11000000       3.47800000       8.90000000       0.52784032      -0.01580046       0.23945817
C        5.70800000       7.05400000      16.41000000      -0.39779186       1.53278796      -0.79384771
S        4.13900000       7.45000000      17.17200000      -1.86243786       2.12870390      -2.28791588
C        3.33700000       6.00700000      17.67400000      -0.86653331      -1.04220498       0.44152427
O        4.34800000       8.30900000      18.36100000       0.07692536      -0.16638330      -0.25656938
O        3.29600000       7.99100000      16.01100000       1.21774398      -0.77364141       2.20226728
H        5.92000000       6.01500000      16.32100000       0.13023718      -1.16266734       0.11721506
H        6.45300000       7.58800000      16.98700000       0.49037163       0.01214332       0.26399729
H        5.60200000       7.54100000      15.40300000       0.19092191      -0.41401706       0.74083567
H        3.04500000       5.47400000      16.75600000       0.16126680      -0.23634405       0.45882420
H        2.44000000       6.23000000      18.27900000      -0.08004256       0.50636750      -0.46707384
H        3.90100000       5.42900000      18.39700000       0.74451440      -0.59734599      -0.13798443
C        4.66800000      12.31100000      12.69800000      -0.16540679       0.58421691      -0.67680388
S        3.27500000      11.21900000      13.02700000       0.70234522       0.01336202       1.38603658
C        2.99600000      11.50300000      14.84400000      -0.03164720       1.24097338      -1.01177751
O        2.15200000      11.64700000      12.23200000      -1.36060631       0.76214395      -0.71838479
O        3.68400000       9.82800000      12.86400000       0.51124128      -0.35746719       0.19281784
H        4.36000000      13.38200000      12.56900000      -0.07204129      -0.84463471       0.34889101
H        5.08200000      11.99600000      11.72500000      -0.04820099      -0.18903420       0.19631814
H        5.41500000      12.22000000      13.48900000       0.05178254      -0.07785507      -0.06526643
H        3.99000000      11.87300000      15.18600000      -0.79334943      -0.22092823       0.28988779
H        2.75200000      10.54100000      15.23900000       0.08743294      -1.00164994       0.44392722
H        2.12600000      12.18700000      15.06100000       0.97641199      -0.24584993      -0.45239952
C       16.29600000       0.35700000      10.37700000       0.03826213       0.40084787       0.05673602
S       14.58800000       0.09500000       9.97300000      -1.40928912       1.53537089       1.38444146
C       13.62600000       0.10500000      11.50800000       0.06138972       0.35401882      -0.11846102
O       14.05700000       1.17200000       9.09800000       0.67177943      -1.19318737       0.08864547
O       14.54600000      17.06600000       9.69500000       0.38461958      -0.99509928      -1.39323207
H       16.52200000       1.39000000      10.14400000       0.09234066       0.63626581       0.46058746
H       16.90500000      18.15400000       9.68700000      -0.16634267      -0.35363213       0.35560159
H       16.38200000       0.09700000      11.45400000       0.41465675       0.11498746      -0.64369218
H       14.28600000      18.12200000      12.29900000      -0.19169633       0.16810491       0.13120752
H       12.80000000      17.77100000      11.36800000       0.35228539       0.36212911      -0.12311831
H       13.24300000       1.12000000      11.68100000       0.17573080      -0.10517973       0.27995356
C       10.06000000      16.59200000       3.54600000       0.74726446      -0.61619475       0.42135345
S       10.16400000      16.95800000       1.80500000       1.45326939       0.71699074      -1.31324556
C        8.75900000      16.20500000       1.08600000      -1.49874861      -0.79928456       0.22051120
O       10.08900000       0.02700000       1.56700000      -0.06477226      -0.76531566       0.53201117
O       11.36200000      16.25100000       1.30300000      -0.58977255       0.34383931       0.27477587
H       10.34200000      17.46800000       4.12300000      -0.09018299       0.36874456       0.04854706
H       10.79700000      15.78100000       3.77200000      -0.56095716       0.35145903      -0.26887211
H        9.05600000      16.27600000       3.78700000      -0.55457620      -0.08897252       0.21009000
H        8.49400000      15.34300000       1.70600000       0.00192987      -0.17108430       0.31958661
H        8.96900000      15.73900000       0.12400000       0.41650075       0.45447955      -0.40939628
H        7.85500000      16.84300000       1.05400000       0.54194591       0.10844503      -0.07994589
C        3.46000000       8.15500000       4.32000000       1.02166906       0.85243184      -0.87206324
S        4.96400000       7.34600000       3.90500000      -0.84861787      -3.99251268       1.63781702
C        4.39700000       5.91500000       2.87300000      -0.44390048       0.29651867       1.51908295
O        5.70400000       8.13600000       2.96500000       1.50152488       1.79626949      -0.77160561
O        5.56100000       6.83000000       5.18500000      -0.37655969       0.70692024      -1.32553800
H        3.42800000       8.82300000       3.46400000      -0.78539906       0.47035045       0.05018794
H        3.61300000       8.65400000       5.25600000       0.02234392       0.62032908       0.65710820
H        2.62800000       7.50000000       4.40500000      -0.63670958      -0.71000248      -0.09675525
H        3.95500000       6.34500000       1.96900000       0.24623406      -0.03061670      -0.01691118
H        3.60700000       5.35800000       3.43600000       0.64715855       0.25349845      -0.31963700
H        5.30200000       5.31400000       2.72200000      -0.06121591      -0.08228508      -0.29704626
C        6.72900000       7.37300000      12.66100000      -0.76587102      -2.92871968       1.25520701
S        8.16400000       6.50800000      11.99700000       0.33847496      -0.99053454      -0.20578237
C        7.39100000       5.25300000      10.91200000       1.22908152       0.54293219      -0.52291358
O        8.78600000       7.60300000      11.16400000      -0.07602136      -1.26860143       0.86881543
O        8.96500000       5.72300000      12.99200000      -0.85427378       1.59232340      -0.84245133
H        7.13000000       8.15400000      13.25800000       0.19866710       1.12786335       0.63244926
H        6.14200000       6.62100000      13.29700000       0.82776005       0.89600536      -0.53228422
H        6.04500000       7.66000000      11.87800000       0.03826316       0.48239196      -0.36339512
H        8.19200000       4.61700000      10.42900000      -0.56850849       0.84854227       0.35603457
H        6.90700000       5.93000000      10.19600000      -0.24183747      -0.75687061      -0.30749934
H        6.71700000       4.57900000      11.45000000      -0.16815633       0.38113934       0.23349732
C       15.90600000      17.06100000      15.04500000       0.08533338       0.54020013      -0.52015478
S       16.13700000      16.24600000      16.57900000       3.58001462      -2.39496942       1.71054273
C       16.32000000      17.57000000      17.80800000      -1.10521347      -1.05978824       1.17396529
O       15.19300000      15.17600000      16.94400000      -1.05846207       1.27370610      -0.53199985
O       17.53100000      15.66500000      16.52700000      -1.18461480       1.02943791      -0.41811437
H       15.01600000      17.64000000      14.95000000      -1.31397318       0.43323863       0.34512692
H       15.88300000      16.27800000      14.30100000       0.09510357      -0.50782223      -0.37013604
H       16.72600000      17.76100000      14.84400000       0.33628592      -0.27249993       0.30073888
H       15.39100000      18.13200000      17.86400000      -0.08802635       0.66709540      -0.54223336
H       17.21900000      18.11600000      17.52500000      -0.01768816       0.22777868       0.13602422
H       16.34100000      17.11000000       0.45500000       0.53220966       0.09823877      -1.34230571
C        2.57000000       5.44800000      14.10300000       1.76463361       0.16425185      -0.95011423
S        2.52700000       4.29800000      12.67800000       0.94314654      -0.01777404       1.13122789
C        2.40700000       2.66800000      13.36100000       0.38994639      -0.27469000       1.61043837
O        1.23300000       4.46100000      12.07000000      -1.44849022       0.70844337      -1.23507116
O        3.75900000       4.45300000      11.90300000      -0.09879259       0.31743871       0.08074602
H        1.76900000       5.26800000      14.78100000      -1.07130421      -0.16783083       0.43143217
H        2.60500000       6.49800000      13.71800000      -0.15900012      -0.68004039       0.13513925
H        3.51900000       5.25100000      14.63300000      -0.10439142       0.06953498      -0.15995811
H        1.81900000       2.10800000      12.64200000      -0.01405571      -0.30233810      -0.32870734
H        1.79900000       2.80900000      14.28000000       0.06886289      -0.22000263      -0.37150335
H        3.33700000       2.14100000      13.68600000      -0.37624241       0.56393142      -0.51491847
C       13.94700000       7.71600000      18.35400000      -0.46568904       0.73736828       1.15408911
S       13.23900000       7.39400000       1.57300000      -1.34316600       1.01717169      -0.76311839
C       13.43900000       9.04100000       2.26900000      -0.21511702      -1.71820308       2.00129904
O       11.78700000       7.15500000       1.38400000       1.41739478      -0.28933500       0.42102486
O       14.08200000       6.44500000       2.33700000      -0.21732817       0.15796602      -0.24676936
H       13.19200000       8.38300000      17.90900000       0.16836870      -0.28950830      -0.29387557
H       14.03300000       6.75500000      17.89300000       0.39061128      -0.63343348      -0.86463533
H       14.86100000       8.30200000       0.12700000       0.12440952      -0.45197786      -0.30815394
H       14.47300000       9.04400000       2.61300000       0.21057851       0.52239421       0.05573381
H       12.75900000       9.03300000       3.15300000       0.36056794       0.23092416      -0.34462658
H       13.17300000       9.80700000       1.58400000      -0.19109417       0.78542117      -0.86965926
C        5.58500000       9.86700000       7.43000000      -0.66021409      -0.70706063       0.85971526
S        4.55000000       8.92900000       8.54300000      -1.80452942      -0.49212924       1.39969068
C        5.64300000       7.82000000       9.47200000       1.40060651       0.91202796      -1.29602636
O        3.81700000       9.78200000       9.49100000       0.83608322       0.13137927      -0.38606814
O        3.65400000       8.04700000       7.73000000       1.35624777       0.63056927      -0.15406103
H        5.93300000       9.08100000       6.75900000       0.19167010       0.35710569      -0.70040918
H        6.37100000      10.29500000       8.05000000       0.22587246       0.19687093      -0.03454483
H        4.86500000      10.61200000       7.07500000       0.26375664       0.02964791      -0.60491943
H        6.18500000       7.29000000       8.64700000      -0.11293572       0.08702414       0.71561366
H        5.01000000       7.13600000       9.99500000      -0.81136669      -0.59910720       0.32062945
H        6.35400000       8.35100000      10.16700000      -0.67994680      -0.06781234      -1.00967127
C        8.88400000       6.70700000       1.91100000       0.24587667      -0.80305071       0.14859435