458
Lattice="18.538 0.0 0.0 0.0 18.538 0.0 0.0 0.0 18.538" Properties=species:S:1:pos:R:3:forces:R:3 virial="-26.677603654622327 -23.507277630436747 -8.104603053584382 -23.507277630436747 -24.272175795842315 1.5029158034702366 -8.104603053584382 1.5029158034702366 -15.217766275503905" energy=-108876.55468908246 pbc="T T T"
O        2.27600000       3.94900000       4.25000000      -0.54223130       0.22245289      -0.57090013
H        1.54900000       3.27400000       4.24000000       0.14066249       0.22075802      -0.66513827
H        2.71600000       3.74100000       5.06900000       0.78558418      -0.44558558       0.91380356
O       12.86700000      14.94800000      17.51700000      -0.60393418      -0.45175109      -0.24090622
H       12.26400000      14.43500000      16.89200000       1.01312632       0.51507480       1.08041672
H       13.43000000      14.35400000      18.09200000      -0.50510508       0.03854598      -0.64002785
O       14.40800000       3.53700000      16.20900000       0.70896736       1.21961831       0.68423591
H       15.15100000       3.53000000      15.56800000      -0.39795384      -0.08049456       0.13332405
H       14.63600000       4.32000000      16.79700000      -0.30242346      -1.05638153      -0.74465633
O       18.49000000      17.31600000       5.38000000       0.51485060       0.45776747      -0.15503856
H       17.65600000      16.77400000       5.26400000       1.61956218      -0.30614694       0.40157087
H        0.80800000      16.82300000       5.58700000      -1.67103670      -0.12755552      -0.29176367
O       17.52000000       8.19000000       0.45800000      -0.41987198      -0.66187040       0.00484190
H       17.51600000       9.11700000       0.14700000       0.61982720      -0.10164703       0.19517863
H       18.42100000       7.82200000       0.48700000      -0.22263544       0.48318694      -0.13275121
O       14.19400000      14.00100000       1.11300000      -0.11548779      -1.06643506       0.17606042
H       14.56300000      13.14500000       1.44700000      -0.39802994       0.68849058      -0.34606434
H       14.64900000      14.67100000       1.63300000       0.21263076       0.33046906       0.16450742
O        1.00800000      17.53500000       2.53600000      -0.30859617       0.09193237       0.56591631
H        1.27300000      16.66400000       2.86500000       0.05996379      -0.57904128       0.25855170
H        1.46800000      17.59200000       1.70100000       0.45423169       0.51927084      -0.95879942
O       16.37200000       5.67900000      13.76000000       0.37848390       0.59558016       0.71519251
H       16.25700000       4.74700000      13.48800000      -0.98508792       0.02512739       0.24083731
H       15.56600000       6.14600000      14.10800000       0.15508844      -0.71133072      -0.64051533
O        1.90400000      14.92300000       3.29400000       0.40053882      -1.40756443      -0.03504980
H        2.87000000      14.68900000       3.25000000      -1.02209175       0.22117351      -0.23433499
H        1.42200000      14.10200000       2.97300000       0.70568714       1.09079935       0.26341880
O        3.77600000       6.24700000       5.71600000      -0.73023964       0.39322455      -1.03193856
H        3.31500000       6.67600000       6.44700000      -0.67342082       0.42153446       0.35003927
H        4.39900000       5.67700000       6.12900000       1.39992002      -1.09270556       0.70065395
O       12.30000000      17.50500000       2.01100000      -0.50965388      -0.08460576      -1.26013633
H       11.36200000      17.77000000       2.09100000       0.09144900      -0.30184754       0.06172756
H       12.62800000      17.72300000       2.89200000       0.47577651       0.02876088       0.74491292
O        8.68600000      13.45600000      12.27200000       1.94407657      -1.24387821       0.77955751
H        7.89300000      13.97100000      12.24100000      -1.23184391       0.91142118      -0.64617176
H        9.20400000      13.60300000      11.43900000      -0.48830961       0.41055019       0.60049662
O       10.35900000      12.42400000      14.87100000      -1.15741407      -0.44633995      -0.28913960
H       10.35800000      11.94300000      15.69700000      -0.22062792      -0.38342710       0.62802799
H       11.27300000      12.65800000      14.75000000       1.28741934       0.61048690      -0.70692950
O        2.35500000       9.01300000       2.20700000      -0.39156310       1.38062338      -0.58088681
H        2.02100000       9.95700000       1.99200000       0.87826320      -2.21907304      -0.29837757
H        2.81400000       8.49900000       1.43900000      -0.87350563       1.16095910       0.93395536
O       10.02800000       2.27900000       2.81400000       0.79200577      -0.70674541      -0.65462812
H       10.60100000       1.95700000       2.08200000      -0.21348745       0.61112916      -0.34220615
H        9.78300000       1.41300000       3.19100000      -0.73678464      -0.11770871       0.59343534
O        0.16200000       2.10100000       4.35000000      -1.29941662       1.91770116       1.36464551
H       17.94400000       2.63500000       3.86900000       1.52609538      -0.81418771       0.36235537
H        0.20700000       2.47500000       5.32000000      -0.07451777      -1.31276836      -1.98839930
O       14.22800000       7.47300000      17.50100000       2.30107016      -0.47910506       1.14794675
H       13.81100000       8.08800000      16.93300000      -1.47668751       1.24305341      -1.59973229
H       15.16400000       7.83100000      17.44800000      -0.93516378      -0.86529918       0.51408646
O       16.59000000      13.62200000       9.59200000       1.91380542       0.95985562      -0.14518558
H       17.58500000      13.50800000       9.35500000      -2.53061158       0.00698003       0.35808322
H       16.09400000      12.84500000       9.35000000       0.13570181      -1.19126778      -0.42941386
O       18.21100000       5.59600000      11.55500000       1.41247009       2.56595448      -0.70843668
H        0.57200000       5.87600000      11.22700000      -0.66550388       0.00796682       0.40253760
H       18.32400000       4.67100000      11.59800000      -0.11196744      -2.59694142       0.27630362
O        1.20300000       6.91800000       3.60100000       0.66907926      -0.02744087      -0.82220955
H        0.62000000       7.18800000       4.30000000      -0.93155086       0.01517722       1.18950915
H        1.30900000       7.75900000       3.09200000       0.52513758      -0.14314824      -0.23899074
O        2.41000000      15.83100000       6.32900000       1.23031050       0.93866510       0.69773164
H        2.52700000      16.34600000       7.21800000       0.12460955      -1.00992581      -2.13189670
H        3.26100000      15.91800000       5.77800000      -1.18571111       0.41331104       1.30150333
O        6.79400000       3.70300000       3.28100000      -0.09516425       0.16939046       0.01594136
H        6.54700000       4.55900000       3.69500000       0.28460983      -0.30699180       0.27783857
H        6.25400000       3.02000000       3.79900000       0.74751900       0.46022288      -0.48148950
O        2.08600000      13.38900000       8.27800000      -0.88020078       0.48899044       0.06464937
H        2.90800000      13.80900000       8.55700000       0.67866742      -0.00628429       0.41716615
H        1.42800000      13.92100000       8.80200000       0.35853111      -0.36168688      -0.55761216
O       16.58100000       0.02000000       3.45000000       0.06170031       0.82448909       0.51238285
H       16.12300000      18.34200000       4.29700000       0.10124851       0.02309262      -0.65848066
H       16.36700000       0.99200000       3.33200000      -0.31112356      -0.93796011       0.01282364
C        6.76200000       9.26400000      14.86600000      -1.33700049       0.22273623      -0.61575406
S        8.28200000       9.13300000      14.00700000      -0.59124887       0.03398947      -0.40491896
C        7.74200000       7.94900000      12.76800000      -1.22439799      -0.84575109       1.80290757
O        8.67900000      10.48200000      13.55000000      -0.65719768      -0.75101518      -0.54236551
O        9.26300000       8.48100000      14.83900000       0.87786828      -0.70586095       1.00163914
H        6.85400000      10.02900000      15.60700000       0.07540069       0.80110439       0.65733394
H        6.38900000       8.34800000      15.31100000       0.44136023      -0.65279646       0.18863414
H        5.98400000       9.53600000      14.12600000       0.33358626       0.26271586       0.23950496
H        8.49200000       7.65800000      12.09800000       1.27944377       0.17531737      -1.70517838
H        6.74100000       8.19200000      12.40400000       0.22190165       0.41655166      -0.59821245
H        7.55800000       6.97200000      13.31300000       0.19380823       0.96887608       0.14871005
C        7.78900000      16.74400000      14.56200000       0.61220234      -1.21661835      -1.29515579
S        8.43900000      18.29100000      15.02600000       4.19900673       0.64511452       0.59256168
C        8.33300000      18.53800000      16.84000000      -1.05815816       0.33645459      -0.76975904
O        9.93300000      18.19300000      14.75800000      -2.35264855       0.01439252       0.03085735
O        7.69000000       0.78100000      14.33000000      -0.71206039       0.76806108      -0.47869625
H        6.96600000      16.86300000      13.84300000       0.31105363       0.14013028       0.21903024
H        7.42200000      16.23900000      15.41900000      -0.50853597      -0.77105693       1.11147822
H        8.64600000      16.14800000      14.11100000      -0.91324461       0.62972287       0.47788944
H        8.91100000       0.88200000      17.18500000       0.15427032      -0.44355750      -0.57023113
H        8.67000000      17.60900000      17.28500000       0.12904419      -0.20008481       0.40239825
H        7.27700000       0.23500000      17.04200000      -0.05604337      -0.35642949       0.19254582
C        6.04000000      12.56700000       4.46600000      -0.58014685      -0.81190302       1.15015070
S        5.33100000      13.59800000       5.67800000       0.43124088       1.32739845      -0.25059105
C        6.06000000      13.10600000       7.16700000       0.82794208      -1.45050494       0.45818913
O        5.66400000      15.00800000       5.35700000      -0.89723177      -0.83660824       0.37301825
O        3.93600000      13.12100000       5.72900000      -1.20276216       0.54319752       0.09176371
H        5.91300000      13.06100000       3.56000000       0.15003365       1.12545217      -1.85864240
H        5.41300000      11.67600000       4.42900000       0.35927416      -0.47334322       0.18602241
H        7.04900000      12.43800000       4.78100000       1.21769924      -0.55421110      -0.18425092
H        6.17400000      12.00000000       7.05900000      -0.30136931       0.49268614       0.34355752
H        5.46000000      13.37000000       8.02900000      -0.51395071       0.12458230       0.25198561
H        7.07200000      13.46300000       7.35200000       0.33537781       0.48369191      -0.31904256
C       12.27200000       3.59200000       4.96500000       0.88110170      -2.41493867      -0.12113394
S       10.74800000       3.63800000       5.84500000      -1.80385990      -0.14835061      -1.91254404
C       10.30200000       1.89800000       6.32400000       0.64634453       2.08645810       0.87179276
O       11.02400000       4.42200000       7.01900000      -0.27823607       1.05294191       1.61983112
O        9.65400000       4.09800000       4.88900000       1.56952800      -0.39769107       1.55300712
H       12.96600000       2.96100000       5.60200000      -0.52048028       0.78530085      -0.54783837
H       12.76100000       4.55200000       4.75400000      -0.56584535       0.03842925       0.02143272
H       12.04700000       2.95500000       4.08100000       0.38389402       0.61347863      -0.01837773
H       10.79300000       1.28400000       5.61100000      -0.06582025      -1.02423400      -0.79705284
H        9.23500000       1.96900000       6.35800000      -0.98665681      -0.44797620      -0.70356804
H       10.57100000       1.67200000       7.36200000       0.57106160       0.26560012      -0.16082714
C        8.91600000      18.06100000      11.05600000      -0.59215699      -1.14822957       0.21166197
S        9.86900000       0.13700000       9.68000000      -0.50534008      -2.01657705      -1.47433547
C       11.47400000      17.82300000       9.67400000       0.14646136       0.28898482      -1.17285508
O        9.36300000      18.31700000       8.31900000      -0.21730451       0.50907898       1.53006979
O       10.00900000       1.52300000      10.05600000       0.69317153       1.61305524      -0.20588830
H        9.44300000      18.32000000      11.98000000       0.19133380       0.26406826       0.01045925
H        8.85100000      16.96700000      11.00500000      -0.09935309      -0.14664237      -0.16143907
H        7.87800000      18.46600000      11.09800000       0.66263710       0.05566542      -0.41052653
H       11.65800000      17.16400000      10.52500000       0.15863502       0.34941655       0.22557061
H       12.17100000       0.13700000       9.53200000       0.03245092      -0.47371088       0.69950724
H       11.54000000      17.24900000       8.71100000      -0.36358950       0.25866071       0.85026646
C       11.88200000       6.46900000       1.56300000       1.71637040       0.34558200       0.93322928
S       10.20200000       6.44900000       1.13900000       0.79846284      -0.68116396      -1.36207852
C       10.32600000       6.06000000      17.86800000      -1.71926803      -1.44350948       1.20233741
O        9.62400000       5.27300000       1.78700000      -0.42116113      -0.48543563      -0.08332895
O        9.57900000       7.71900000       1.45200000      -0.51389003       0.64887244      -0.36449453
H       11.97400000       6.76100000       2.65100000      -0.10641643      -0.35198097      -0.86433193
H       12.45800000       7.20800000       0.95400000      -0.38719737      -0.41628580       0.14638577
H       12.32600000       5.46600000       1.38300000      -0.23895886       0.33674204       0.16759943
H       11.11800000       5.34100000      17.69500000       0.52483265      -0.42275316       0.43869451
H       10.54900000       6.90200000      17.26500000      -0.20404945       1.36343812      -0.61319170
H        9.36900000       5.50400000      17.63600000       0.58810493       0.88421325      -0.06391660
C        0.52600000      10.65000000       5.90700000      -0.17545621       1.08311586       0.66205346
S       17.86100000      12.01800000       5.83500000       0.94195612       0.34599955       0.09082628
C       17.17500000      11.69800000       4.23100000      -2.18573972       0.35425639       1.26096577
O       16.80700000      11.84700000       6.84100000       0.44685982       0.22831449      -0.10676610
O        0.13600000      13.28800000       5.81500000      -0.39553289      -1.02301786      -0.08676291
H       18.50400000       9.72200000       6.07800000       0.26396027      -0.07916787       0.52083458
H        1.32600000      10.98600000       6.62500000      -0.79191887      -0.73839723      -0.31889858
H        0.93000000      10.59200000       4.91100000       0.53339596       0.00078984      -0.66702495
H       16.32600000      12.35800000       3.98100000       0.16620949      -0.14973952       0.51154467
H       16.81800000      10.67500000       4.27500000      -0.22510627      -0.44989270      -0.10482954
H       17.87500000      11.82700000       3.48900000       2.12384194       0.17974995      -1.83324761
C        4.85800000       5.95800000      10.16200000      -0.52046280      -0.38599512       0.41653520
S        3.87000000       7.37400000      10.73700000       1.91535734      -0.55310193       0.17270616
C        4.13100000       8.69800000       9.52600000      -0.39063905       1.12680405      -1.17928850
O        2.47900000       6.96500000      10.75300000      -1.20087445      -0.06993658      -0.47360855
O        4.47200000       7.74300000      12.00500000       0.20537614       0.86519685       0.79296993
H        4.12700000       5.26700000       9.72500000       0.47930046       0.24496496      -0.03225655
H        5.29300000       5.48400000      11.06400000      -0.31421403       0.34021148      -0.02186929
H        5.67400000       6.19100000       9.48300000       0.05524376       0.34080078      -0.37172807
H        4.76600000       8.29000000       8.67500000      -0.68300847       0.44294506       0.89327536
H        4.56700000       9.69100000       9.90700000      -0.32342681      -1.74924298      -0.03984439
H        3.09800000       8.95000000       9.13900000       0.94402277      -0.38485304       0.09530360
C       13.08800000       6.96900000       7.08300000       1.30633546      -1.34370336       0.14267824
S       13.88600000       7.41900000       8.67500000      -0.46125852      -0.65488060       0.46119887
C       14.01700000       9.20100000       8.54900000       0.41174009      -0.96751031      -1.41428272
O       12.93700000       7.05400000       9.75200000       0.62312593       0.40342669      -0.44200918
O       15.25600000       6.86700000       8.72100000      -0.57941666       0.23947720      -0.31919786
H       12.07500000       6.62600000       7.21300000      -0.59774143      -0.20221420       0.65116792
H       13.69100000       6.07300000       6.71600000      -0.53284883       1.26982425       0.13185904
H       13.03200000       7.80700000       6.40100000       0.53276553       0.32004375      -0.40723398
H       14.64700000       9.36000000       7.65800000      -0.21597834       0.14623408      -0.00713378
H       14.54300000       9.59700000       9.38400000       0.27008258       0.34846421       1.20793933
H       13.01300000       9.54800000       8.39100000      -0.65969319       0.64725779       0.06995561
C        7.80100000       4.05100000      14.29000000      -0.90861713      -1.58128668       0.44001195
S        6.25600000       4.38300000      15.22600000       1.19506633      -1.65292842       1.89610081
C        5.31400000       2.68500000      15.26600000      -0.68563459       0.50389512      -1.74821248
O        6.55700000       4.79200000      16.64100000      -0.31666686      -0.40384783      -1.41456605
O        5.58100000       5.29400000      14.34400000      -1.59262165       1.46509646      -0.94436267
H        8.64500000       4.61300000      14.64900000       0.37009850       0.26324088       0.73209083
H        7.71800000       4.31500000      13.23300000      -0.57526587       0.01920511       0.08647752
H        7.92300000       2.95100000      14.37400000       0.53395492       0.44221641      -0.01367261
H        5.18500000       2.17200000      16.22900000       0.78872761       0.38204179       0.19941632
H        5.90200000       2.08900000      14.51800000      -0.46198048       0.15469712       0.80388632
H        4.24200000       2.75700000      14.84700000       1.53495386       0.65542310       0.35662798
C        3.01600000       6.45100000      15.62000000      -2.06315979      -0.59588149       0.56938575
S        1.67400000       5.75900000      14.55100000       1.50168121       0.79046105       2.24204791
C        0.65900000       4.95600000      15.77200000       0.04005419       0.14021718      -0.61846298
O        0.85500000       6.95700000      14.22300000       0.15758293      -0.06257860      -0.75021917
O        2.24100000       4.89600000      13.52200000      -0.46747802      -0.11950231      -0.12180037
H        2.45900000       7.27400000      16.16800000       1.16607457      -0.63490364      -0.58820932
H        3.73900000       6.67700000      14.86800000       1.00535593       0.81332484      -0.25418802
H        3.38700000       5.65500000      16.31200000      -0.22483476       0.53400583      -0.48774808
H        1.11900000       4.07900000      16.21100000       0.41424178      -0.26085335       0.13191560
H       18.39600000       4.61500000      15.09400000      -0.68620692       0.23569459       0.86673952
H        0.47900000       5.75700000      16.53900000      -0.53772107      -0.83797813      -0.69327231
C        0.09700000      17.27000000      11.43500000       0.40464950      -1.61423897      -0.31395075
S       17.91800000      16.62100000       9.88100000       1.88738425       0.96268024       1.51410838
C       18.01400000      18.02200000       8.75300000      -0.42224819      -0.50223213      -1.12363234
O        0.32600000      15.62600000       9.35400000      -0.19560286      -0.54639649      -0.24381413
O       16.54300000      16.24100000      10.21600000      -0.07371508       0.48639157      -0.19013464
H       18.11200000      18.17700000      11.63000000      -0.56537998       0.96142451       0.52959073
H        1.16200000      17.42800000      11.24200000       0.07699118       0.20468348      -0.12820601
H        0.03200000      16.51300000      12.27000000      -0.35610090       0.57894974      -0.86653743
H       18.48800000      17.62500000       7.83700000      -0.07457537      -0.09880185       0.10767627
H        0.16100000       0.24600000       9.12800000      -0.26278733       0.26897341       0.35960429
H       17.01100000      18.36700000       8.42600000       0.37092743       0.17307537       0.67935545
C        9.20300000      16.30100000       5.73500000      -0.07789775      -1.19538052       1.60428160
S        9.09400000      16.97400000       4.17700000      -1.09376486       2.63807290      -2.08893253
C        7.71000000      16.21000000       3.31300000       0.51487836      -0.66192954       1.08708308
O        8.82400000      18.45900000       4.08000000       0.61864758      -1.80311325       0.73204147
O       10.28700000      16.49100000       3.52100000       1.51964036      -0.50392752      -0.96593320
H        9.28100000      15.17600000       5.60200000      -0.14330919       1.15406186       0.16530241
H        8.30100000      16.59200000       6.26500000      -0.18941319      -0.10857718       0.61282352
H       10.12000000      16.66800000       6.23900000      -0.39811016       0.02714879      -0.20930170
H        7.33400000      15.35500000       3.89500000       0.14454949       0.10919785      -0.09959992
H        8.25200000      15.84200000       2.43200000      -0.72945391       0.35367378      -0.38042046
H        6.91600000      16.95000000       3.24800000       0.00387774       0.07219864      -0.55457414
C        6.26000000       7.42300000       1.17500000      -0.76477058      -0.51255151      -1.62820623
S        4.59700000       6.57300000       1.62800000      -0.24170943       2.58269545       0.89458097
C        4.87700000       4.87700000       1.24500000      -2.60341752       0.75340939      -0.25208692
O        4.36700000       6.76000000       3.10700000       0.54097969      -0.55925304      -1.51501906
O        3.50000000       7.11900000       0.77300000       0.82306110      -0.43701815      -0.07089766
H        6.33300000       8.56500000       1.08100000      -0.70128747      -1.64032281       0.31014140
H        6.55100000       6.90800000       0.21100000      -0.56421424       0.75819113       0.29722058
H        6.99800000       7.00600000       1.82300000       0.58769407      -0.05725590       1.30041472
H        4.64500000       4.85300000       0.17300000       0.91602551      -0.55392211      -0.10674039
H        4.09100000       4.28700000       1.78100000       0.41639533       0.30758007      -0.18625844
H        5.81500000       4.72700000       1.69500000       1.72335866      -1.17928490      -0.04989072
C       11.30000000       4.52300000      10.35400000      -0.71618959       0.00331929      -0.18107818
S        9.65100000       5.09600000      10.85500000       0.58811007       1.29744458       1.12999119
C        8.42000000       4.00100000      10.05700000       0.66079516      -0.41704994      -0.06056491
O        9.56800000       4.81900000      12.32500000      -0.06071249       0.41526816      -1.33647547
O        9.45200000       6.52400000      10.39900000       0.06424107      -2.19404695       0.43858344
H       12.15100000       4.88900000      10.95200000      -0.66891934       0.09144746       0.12116839
H       11.39700000       4.82300000       9.33600000       0.29962610       0.68053095      -1.03422068
H       11.23600000       3.45100000      10.28900000       0.03705166      -0.86043517       0.53842196
H        8.42800000       2.98400000      10.51200000       0.23620418       0.72749061      -0.12104292
H        8.59200000       3.92200000       8.97600000       0.16859290       0.11809129      -0.01160493
H        7.47100000       4.48700000      10.21200000      -0.53964992       0.42298301       0.19183825
C       15.19600000      13.99200000      14.63000000      -0.16806994       1.67213611      -0.33533719
S       13.97900000      13.41400000      13.44600000       2.08967969      -1.78604473       0.81975672
C       14.09400000      14.59700000      12.12900000      -1.54384010       0.48286041      -1.42261412
O       14.34100000      12.04000000      13.02200000      -0.15066152       1.28649477      -0.13303197
O       12.72200000      13.59700000      14.14600000      -1.35316142       0.34824155       0.14664288
H       16.14100000      14.15700000      14.06600000      -0.34591162       0.14003720       0.63835766
H       15.30500000      13.29200000      15.42700000       0.20815653      -1.27793094       0.36551834
H       14.76500000      14.88600000      15.19200000       0.65292399      -0.49961886      -1.15807124
H       13.00000000      14.85200000      12.06400000       0.73188000       0.02901542      -0.36945367
H       14.44000000      14.27200000      11.10300000      -0.17239300      -0.40315415       1.47804711
H       14.59700000      15.54100000      12.36000000       0.19342462      -0.23407222       0.47674581
C       18.21400000       7.64600000       8.87700000       2.66181036       2.19118120       0.04617445
S        0.50800000       7.10400000       7.35600000      -1.66728186       0.80343227      -2.35699063
C        0.55400000       5.32100000       7.30700000       0.02500398      -0.61428442       0.81099799
O       18.08400000       7.54500000       6.25200000       1.75221261      -0.53655996       1.34026734
O        1.93700000       7.53800000       7.25200000      -1.08466418       0.20305700       0.64226779
H       17.82400000       6.80100000       9.40000000      -0.34589054      -0.59503354       0.70907689
H       17.44900000       8.36700000       8.58100000      -0.27056801      -0.25226484      -0.17385544
H        0.50000000       8.26600000       9.43400000      -1.37558607      -1.50961923      -0.60303687
H        0.10700000       4.87400000       8.21400000      -0.11834686       0.28366521      -0.09429624
H        1.63300000       5.09600000       7.38200000      -0.58548189      -0.21026638      -0.66791969
H       18.52200000       4.93600000       6.43500000       0.60721183       0.37821136       0.18136255
C       13.65700000       0.94500000      18.34000000       0.26421070      -0.62611766       0.11332755
S       11.88300000       0.77200000      17.81200000       2.78002352       1.12702414      -3.26108210
C       11.88600000       1.43400000      16.09900000      -0.44480705       0.11356409       1.20082612
O       11.70900000      17.88100000      17.65200000      -0.85534130      -1.86345962       0.82862599
O       10.99200000       1.65200000      18.53000000      -1.08760244       0.46657864       1.90452940
H       14.22700000       0.09400000      17.89000000      -0.71544397       0.16652265       0.13817007
H       13.68900000       0.78300000       0.91400000      -0.01772056       0.58674327      -0.83395641
H       14.17700000       1.83100000      17.91100000      -0.72432970       0.13658730       0.61006729
H       11.74600000       2.51600000      16.21100000       0.83674400       0.01660470      -0.19438364
H       11.02000000       1.07500000      15.52200000       0.14007474      -0.52779096       0.33798131
H       12.81300000       1.04600000      15.69200000       0.31611562       0.46634364      -0.48831887
C        6.40400000       8.47200000       5.36400000      -0.60504747       0.47767501      -0.16291231
S        7.10900000       6.93100000       5.89300000       2.04906654      -1.18907412       1.80722239
C        8.88200000       7.30100000       5.90200000      -0.66969735       2.69639530      -0.46592610
O        6.71700000       6.46800000       7.25000000      -0.41491849       0.99997049      -1.12416610
O        7.01000000       6.00400000       4.79100000      -0.91641683      -0.80743445      -1.28395195
H        7.04300000       8.83700000       4.54600000      -0.24216297      -0.10390703      -0.00534327
H        6.43100000       9.18600000       6.17300000       0.23042177       0.39794510       0.57914669
H        5.34600000       8.36300000       5.05200000       0.40882755      -0.43996772      -0.06583105
H        9.56400000       6.48100000       5.85000000      -0.01895366      -1.22589489       0.04382806
H        9.12900000       7.95800000       6.74500000       0.00171338      -0.11868933       0.09996090
H        9.00200000       7.93100000       4.98200000       0.18966875      -0.49165410       0.48011036
C       11.61900000       6.95400000      13.78000000       1.71932099       0.58014428       0.90974276