458
Lattice="17.924 0.0 0.0 0.0 17.924 0.0 0.0 0.0 17.924" Properties=species:S:1:pos:R:3:forces:R:3 virial="15.583594163499603 11.120969236650257 15.588369331549664 11.120969236650257 16.502241467396164 14.13140611247959 15.588369331549664 14.13140611247959 -23.6247981718683" energy=-108870.95809199306 pbc="T T T"
O        0.40600000       3.03900000       2.15700000       0.80937100      -0.10613360       0.79856825
H        1.25100000       2.64600000       2.54500000      -1.03945133       0.64095139      -0.33984844
H        0.17500000       3.80600000       2.74600000       0.40961071      -0.68191266      -0.44817623
O       13.83400000      11.77100000      15.58000000       0.06479438      -0.76922682       0.15394173
H       12.89700000      11.77700000      15.17800000       1.59837012      -0.56631380       0.22172373
H       14.24800000      10.84200000      15.59000000      -1.23198995       1.34354704      -0.36026352
O        3.91100000       3.00500000       8.08800000      -0.50847683      -1.75031976      -0.81296695
H        3.28800000       2.65900000       7.34700000       1.18989584       0.68755469       1.30576416
H        4.22800000       2.11000000       8.50500000      -0.70530045       1.76533912      -0.74828158
O        5.05400000      14.63500000       2.04400000      -0.17436709       1.22622245      -0.77743893
H        4.42100000      15.38900000       2.33200000       1.20607014      -1.43835185      -0.58248450
H        5.28700000      14.83700000       1.07000000      -0.67260476      -0.32143214       1.78107735
O       16.36200000       0.13200000       2.25400000      -0.01117247      -0.74382021       1.59759416
H       17.06300000      17.35800000       2.50800000      -0.98991234       1.21283266      -0.13505080
H       15.67900000       0.11500000       3.01200000       1.22395062      -0.35517736      -1.72924545
O       12.12700000      15.93000000      15.82100000      -0.42699034       1.28160607      -0.88925878
H       11.89800000      15.53900000      14.90500000       0.39835801       0.39709509       1.21890200
H       12.27700000      16.92800000      15.67300000       0.05536563      -1.99448973       0.16941720
O       15.68400000       2.93400000       0.54200000       0.15955136      -0.26990723       0.13181636
H       14.80100000       2.82400000       0.04800000       1.48163174       0.77228026       0.55461117
H       16.03000000       3.85800000       0.64600000      -0.98736180      -0.59143759      -0.29981739
O       11.12800000       3.35500000      11.52100000      -1.40244433      -0.12440644       0.58635761
H       10.25600000       3.88300000      11.63000000       1.41455474      -0.95178956       0.03667422
H       11.32800000       2.97800000      12.41800000      -0.06268401       0.63470155      -0.96536396
O        5.39600000      13.93100000       4.83900000       0.27224179       1.00063332       1.10154656
H        6.04800000      14.68600000       5.01900000      -0.93394302      -1.19429346      -0.29189479
H        5.26100000      13.46900000       5.74100000       0.55748360       0.63901072      -1.66456781
O        3.35700000       5.66900000       8.85300000       0.10163777      -1.99728092       0.57706975
H        2.69800000       5.29400000       9.51400000       0.69311445       0.66743684      -0.60273605
H        3.83500000       4.81900000       8.57300000      -0.63927194       0.86778338       0.04246794
O        5.32300000       8.79000000       1.58800000       0.11163165      -1.65631816       0.43392512
H        4.89300000       7.98400000       1.08100000       1.29460043       1.67545643       1.47688497
H        5.85700000       8.48700000       2.41600000      -1.50744614      -0.12119256      -1.88193146
O       11.72100000      14.57100000      13.58200000      -1.15843942      -1.25032963      -0.66592914
H       10.79200000      14.88900000      13.35700000       1.09290971      -0.31179514       0.29601833
H       11.65500000      13.55300000      13.61600000      -0.21889603       1.25867183       0.21526820
O       11.53400000      11.80300000      14.08200000      -0.73508154      -1.47236652      -0.85833612
H       11.62200000      11.47800000      13.11600000      -0.27621672       0.43662323       1.33755071
H       10.84500000      11.16500000      14.48700000       0.75683410       1.13250933      -0.68155168
O       14.41500000      14.42300000      14.36500000      -0.76967368       0.10697744      -0.71137082
H       14.77500000      14.96500000      13.58400000      -1.13824032      -1.03389569       1.34380363
H       13.40300000      14.31300000      14.32800000       2.16842591       0.74677132      -0.74195307
O       12.95300000       6.43600000       5.40300000      -1.57774524       0.28527626      -0.62180850
H       12.71100000       6.90100000       4.53500000       0.26225254      -0.75390510       1.10390066
H       12.04400000       6.21400000       5.83200000       1.72453519       0.26853941      -0.60367502
O       14.25400000      14.43500000      17.20000000      -1.27161219       0.75723057       0.61449679
H       13.55300000      14.71000000      16.51500000       0.72959583       0.38601415       1.49046040
H       14.01400000      14.81900000       0.19100000       0.34395450      -0.84452673      -1.74585015
O       16.91800000      12.50400000      15.83800000       1.84373720       0.27041940      -0.65356111
H       17.29000000      12.22700000      14.93400000      -0.83661493       0.41832469       0.89059936
H       17.57900000      13.21900000      16.05700000      -0.88763487      -0.57394381      -0.00470923
O       17.62700000      15.73300000       7.91300000       0.71643898      -0.23004536       0.16594107
H        0.36500000      15.23800000       8.48500000      -0.71075222       0.91763194      -1.33243730
H        0.09000000      16.19200000       7.11000000      -0.20224865      -0.82844345       1.44097437
O       14.12200000       3.16800000      10.05500000      -0.15661465      -0.92145620      -0.10043501
H       15.12300000       2.98900000      10.12000000      -1.95330631      -0.16153317      -0.23603295
H       13.63000000       2.30500000       9.84200000       1.35624315       1.17435969       0.23990040
O        3.13100000       8.14000000       8.12000000      -0.58439843      -0.69965379       1.95884036
H        3.19600000       7.12200000       8.33200000       0.08632120       1.29473978      -0.59506439
H        2.93500000       8.48800000       9.05000000       0.58522169      -0.22690810      -1.58145792
O       15.66100000      17.35500000       6.65600000      -0.02423985       0.15133977      -1.36190883
H       15.49200000      17.18200000       5.66100000       0.25699001       0.61927596       1.99145120
H       15.62600000       0.41500000       6.91200000      -0.10867437      -1.30535227      -0.88583099
O       14.75500000       8.79100000       5.64400000       0.09658864       1.90690921      -0.59744421
H       14.18500000       9.61800000       5.48300000       1.06496079      -2.00022484       0.34430365
H       15.66800000       9.19100000       5.81300000      -1.26311264      -0.46621355       0.01667875
O        5.48900000      11.59800000       1.32700000       0.18797748      -0.95254803      -1.85487368
H        5.53000000      10.56800000       1.28700000      -0.26426006       1.78108713       0.17824586
H        5.57200000      11.91600000       0.34500000      -0.10762896      -0.71463715       1.87445006
O        0.68700000       0.43700000       0.33400000       2.14865618      -0.91213080       0.73021650
H        1.68200000       0.60800000       0.51600000      -1.70590241       0.42788405      -0.35181179
H        0.73900000      17.37300000       0.48700000      -0.55044906       1.07027012      -0.09025550
C       12.28200000       7.95300000      12.98100000      -0.15067026       0.10545843      -0.49502533
S       10.70200000       7.16800000      12.62400000       0.98041879      -0.28059171      -0.06168488
C       10.35900000       6.37500000      14.15800000      -0.87671591       1.01161194       1.49714475
O        9.71100000       8.16000000      12.24800000      -0.09831077       0.55714216       0.49980758
O       10.95600000       6.11300000      11.66900000       0.26738190      -0.51557822      -0.96635486
H       12.26800000       8.74900000      13.70400000      -0.50956286       0.70479600       0.34270031
H       12.70700000       8.28900000      12.03500000      -0.26862477       0.23303504      -0.33339600
H       12.98800000       7.24200000      13.36000000       0.31354143      -1.06246990       0.28730692
H       10.30400000       7.21300000      14.90300000      -0.21220499      -0.69468385      -0.27962755
H       11.17100000       5.73100000      14.42900000       1.01307541      -0.24811250      -0.02176439
H        9.47100000       5.72500000      14.20500000      -0.07468181       0.63014298      -0.44854184
C        9.06700000      17.45600000      15.09100000       1.74487519       1.27656517       0.48700195
S        8.57000000      16.98600000      13.51900000      -0.34864727      -0.27860990       0.45883808
C        8.91500000       0.42500000      12.49300000      -1.54132351       1.47707421      -0.47335761
O        9.44400000      15.91400000      13.10700000       0.43071638      -0.99528337      -0.67750785
O        7.12800000      16.77000000      13.53400000      -0.21315784       0.01109431      -0.38108380
H       10.10300000      17.80500000      14.99900000       0.23320165      -0.14100548      -0.07107815
H        9.05900000      16.76800000      15.89500000      -0.11500854      -1.81286545       0.36461743
H        8.55600000       0.35100000      15.51500000      -1.18169094       1.48169345      -0.02219222
H        9.94300000       0.75700000      12.35200000       0.31823883       0.04724814       0.65735966
H        8.17000000       1.23600000      12.76000000       1.04666379      -0.44861949      -0.16144884
H        8.60600000       0.10200000      11.50200000      -0.34160142      -0.32942673      -0.44796128
C        7.92400000      15.41400000       7.69400000       0.73666328      -1.37749486       0.29530356
S        8.10300000      16.55700000       6.40100000      -1.45160537      -0.81439905       1.08010561
C        7.23700000       0.00200000       6.93800000       0.34445020       0.81953663       1.57622675
O        9.48000000      16.84300000       6.26700000       3.22543890       1.10284548      -0.16614521
O        7.45100000      16.03900000       5.23100000      -1.13382573      -0.73714614      -1.55898236
H        8.27300000      15.71500000       8.67900000       0.32429944       0.65242159       0.06363018
H        8.62600000      14.61200000       7.33900000      -0.85307256       0.01148615       0.24788419
H        6.89700000      15.10600000       7.87000000      -0.22316817      -0.39357473      -0.49095270
H        7.60100000       0.40300000       7.88000000       0.65836187      -0.07584292       0.34140550
H        6.22900000      17.70000000       7.15800000      -1.47952652      -0.43732823      -0.23716680
H        7.35600000       0.77100000       6.23000000      -0.09447468       1.08246537      -1.22234317
C       10.99200000      16.74100000       9.26700000       1.29676890      -0.86057607       0.53240506
S       12.51300000      17.42500000       8.67200000       1.52792189       1.27756738      -1.22084061
C       12.28200000      17.67600000       6.97600000      -0.06979312      -1.44268107      -1.30817328
O       12.72000000       0.84500000       9.21800000      -0.41054659      -0.31329923       0.74008285
O       13.58000000      16.43600000       8.71000000      -0.04557075      -0.69643426       1.35134159
H       10.10800000      17.30700000       9.14000000      -0.81363338       1.07771346      -0.43634247
H       11.20400000      16.59600000      10.31800000      -0.05665941      -0.20113125       0.67404303
H       10.93800000      15.78300000       8.78000000      -0.26098139      -0.72264563      -0.30504856
H       11.57100000       0.52800000       6.95700000      -1.19219852       0.82072962      -0.69192043
H       11.94300000      16.71600000       6.48700000       0.15069494       0.97962175       0.43903750
H       13.21600000       0.09900000       6.51100000       0.08987703      -0.17072024       0.44555782
C        9.15900000      12.36200000       9.51400000       0.29782427       0.68580686      -0.56420601
S        9.41500000      11.69100000      11.10200000       0.23931830       0.47132953      -0.30551239
C        8.82300000      12.91800000      12.18200000      -0.07416039       0.13566993       1.48694159
O        8.56800000      10.53000000      11.18700000      -0.93934490      -0.98134336       0.26134289
O       10.84200000      11.55900000      11.31600000       1.28541336      -0.28295661       0.27109251
H        8.14700000      12.70900000       9.44300000      -1.33000041      -0.82103250      -0.41950843
H        9.57800000      11.70300000       8.74400000      -0.49570153      -0.13542978       0.03690870
H        9.59900000      13.33300000       9.38700000       1.33426535       0.65073495       0.25960174
H        7.75900000      13.06000000      12.02700000      -0.48290309      -0.17714542       0.23647980
H        9.27700000      13.87800000      12.00900000       0.55172793       0.45743374      -0.39204133
H        9.08900000      12.62000000      13.24000000      -0.50624614       0.07698552      -1.05410405
C       13.28700000       3.15700000       5.46200000       0.07286970       0.53175097      -0.76911421
S       15.01500000       3.08600000       5.88700000      -1.10786273       0.60971248      -3.21244197
C       15.68200000       2.56600000       4.33700000       0.63515561       0.79172809       0.12472937
O       15.45600000       4.41600000       6.16900000       0.32044021       1.58048347       0.54873105
O       15.32000000       2.03300000       6.78300000       0.30254688      -1.92960948       2.67028369
H       13.17200000       3.93900000       4.65900000       0.17200630      -0.38852200       0.81104890
H       12.79200000       3.50100000       6.37200000      -0.43850888      -0.24524932       0.03910854
H       12.98400000       2.19700000       5.01500000      -0.11986947       0.04985267       0.56374115
H       15.40900000       3.31300000       3.60600000       0.02350040       0.33976000      -0.51577979
H       15.33600000       1.60400000       4.01900000      -0.49049659      -0.61797292       0.07903366
H       16.76200000       2.54400000       4.48400000       0.26435159      -0.00452000      -0.08899360
C        1.28300000      11.85900000       3.83500000      -0.60734912       0.73779251      -0.28771572
S        2.68800000      10.86700000       3.46300000      -1.29296006      -0.97656008      -1.47858036
C        2.23600000      10.56400000       1.77200000       1.15212531       0.46595592      -1.13213601
O        3.83800000      11.69000000       3.42500000       2.33249418       2.18744384       0.64001602
O        2.80300000       9.64400000       4.21400000      -0.58715825      -0.99795423       0.42921228
H        1.40500000      12.75600000       3.22800000       0.11001391       0.11983913      -0.61015420
H        1.32000000      12.30000000       4.81800000      -0.14144617      -0.51304722       0.84629307
H        0.33200000      11.38400000       3.52300000       0.40786853      -0.02830528       0.64521942
H        2.30600000      11.52200000       1.20400000      -0.41285750      -0.40128187       0.60221566
H        1.28900000      10.08900000       1.73000000      -1.15485325      -0.16298224      -0.08807315
H        2.93600000       9.92200000       1.22800000       0.43741102      -0.29914274       0.50648782
C        0.18000000      12.38400000       7.36600000      -0.41032342       0.37533070      -1.74172456
S       17.84200000      10.63400000       7.26600000       1.77836433       1.09777269       2.08724743
C        0.11400000      10.26100000       8.96600000       1.53427766       0.17985485       0.34779727
O       16.51300000      10.30100000       6.85300000      -1.57041400       0.00396618      -0.52313623
O        1.04100000      10.06800000       6.57300000       1.15216233      -0.43094469      -1.16055287
H       17.53300000      12.89700000       8.12700000      -0.01757349      -0.03911985       0.58962137
H       17.75300000      12.76700000       6.41500000      -0.59992532       0.23654305      -0.48324505
H        1.23600000      12.60300000       7.27400000       0.58953035      -0.13382953       0.83192883
H       17.12900000      10.58800000       9.46000000       0.10830413       0.07131727       0.55848068
H        1.10700000      10.68100000       9.37300000      -1.65582297      -0.14106513      -0.55732111
H        0.28100000       9.19900000       8.97900000      -0.29261162      -0.97989480       0.20599115
C       14.96900000       8.34200000      10.02700000      -0.19282658       0.04888747       0.63588426
S       14.74700000       6.70600000       9.41700000      -0.66701466       0.23629417       1.00419944
C       16.27100000       5.99500000       9.82100000       1.14602408      -0.02687009       0.69386418
O       13.68800000       6.10400000      10.20700000      -0.36736028      -0.11771797       0.69997724
O       14.52700000       6.71500000       8.00200000       0.31861113       0.21784188      -1.63469981
H       15.20500000       8.34900000      11.11500000      -0.21785062      -0.07441442      -0.54729946
H       14.04500000       8.84800000       9.78900000      -0.66689279       0.35032620       0.16585931
H       15.72100000       8.83800000       9.44900000       0.79316431       0.28317875      -0.41290583
H       16.41300000       5.90400000      10.90600000      -0.21791335       0.46890806       0.08890670
H       17.09900000       6.55800000       9.36000000      -0.24925202      -0.19475491       0.00219367
H       16.25000000       4.97900000       9.50000000       0.07090229      -1.03929449      -0.81713985
C        4.15300000       4.85800000      16.39600000       0.77680489      -1.81072166       0.35993596
S        3.10900000       5.95900000      17.16900000      -0.86284738      -0.35365784       1.21180421
C        2.40400000       4.98000000       0.51100000      -0.14792638      -1.69318830       0.19132969
O        3.96100000       6.96500000      17.75600000       0.65281292       1.34644159       0.55936771
O        1.99700000       6.33700000      16.33400000      -0.99457889       0.78895747      -1.51776912
H        4.98100000       4.69500000      17.16900000      -0.78570605      -0.11447684      -1.23089826
H        4.49000000       5.33500000      15.48100000       0.28346209      -0.06460514      -0.34657908
H        3.51900000       3.94200000      16.21800000       0.95008492       0.50329194      -0.10774466
H        3.07100000       4.12100000       0.78600000      -0.34928851       0.77758702       0.08089103
H        1.42200000       4.55100000       0.24400000       0.32107785       0.13056269      -0.33034616
H        2.21800000       5.65600000       1.31400000      -0.01621852       0.47587215       1.01234984
C        4.03800000       9.09400000      13.20200000      -0.14082293       2.46398092       0.73853350
S        4.59800000       9.45200000      11.57500000       1.93111306       0.44676778       2.78970064
C        4.91900000      11.15600000      11.62600000       0.01288226       1.66918911      -0.96219893
O        5.87300000       8.84100000      11.38000000       1.85534522      -1.34958862      -0.80978495
O        3.50200000       9.14400000      10.76400000      -3.30673307      -0.74825896      -3.00855964
H        4.79300000       9.33500000      13.94400000       0.39128645       0.47574308       0.13738382
H        3.80500000       8.09100000      13.40500000      -0.52210471      -1.82474960      -0.49662816
H        3.15500000       9.75800000      13.31000000       0.17090278      -0.41991826       0.29103142
H        5.63100000      11.38400000      12.38300000       0.88227926      -0.10714045       1.07191099
H        4.00300000      11.62900000      11.88900000      -1.13383756       0.64934913       0.30805778
H        5.30400000      11.70700000      10.72300000      -0.34106098      -1.13579057       0.30545377
C        0.54100000       1.03200000       8.86400000       0.41629763      -0.01538857       0.17490239
S       17.00900000       1.12300000       9.83600000       1.50323570      -4.65889793       0.04143333
C       17.48200000       0.36700000      11.35200000       0.31534377       1.28283146       0.73216385
O       16.69800000       2.44800000      10.06900000      -0.46457215       6.37595841       1.27714675
O       15.93700000       0.34400000       9.30000000      -0.86736378      -1.55810973      -1.06287151
H        1.41800000       1.54100000       9.31400000      -0.41332492      -0.24118544       0.08830763
H        0.27100000       1.58300000       7.97100000       0.02568018      -0.06510548      -0.73363298
H        0.70400000      17.88400000       8.71600000       0.25688305       0.10392348      -0.37221298
H        0.30700000       1.00300000      11.82900000       0.24161018       0.21508771       0.01965814
H       17.90300000      17.32000000      11.25200000       0.09586667      -1.19209362      -0.29155592
H       16.60500000       0.40600000      11.98900000      -0.49212101      -0.34854546       0.23894755
C       11.86900000      17.59000000       1.06400000       0.96392928      -2.43864938      -0.70764272
S       12.08500000       0.64900000       2.42700000      -0.12492014      -0.71386017       0.71643796
C       10.98200000       0.12100000       3.64700000       0.23088097      -1.70268698       0.88278834
O       13.41400000       0.34100000       2.84100000       2.48538742       0.27703793       1.21406319
O       11.64900000       1.94600000       2.06200000      -0.35203856       3.43699237      -0.64514280
H       11.87600000      16.52400000       1.35900000       0.15441481       0.17059785      -0.00423615
H       12.77400000      17.74200000       0.43900000      -0.47531577       0.09540028       0.13323355
H       10.98100000      17.77900000       0.53900000      -1.37147333       0.55256405      -0.96086710
H       11.39400000      17.16500000       4.14800000       0.00428192      -0.63311569      -0.39922242
H       10.10900000      17.78600000       3.08700000      -1.20455525      -0.18077891       0.06971547
H       10.80700000       0.73100000       4.51900000      -0.21103771       1.19988612      -0.14383524
C        3.60200000       5.99400000       3.46300000      -0.39300703       0.03650607      -0.05310974
S        4.77200000       6.50600000       4.65700000       0.09969968      -0.16533532       0.22035590
C        5.32200000       5.07700000       5.50600000      -2.31035184       0.39324152       1.23799604
O        5.89600000       6.94900000       3.91800000       3.07383070       1.46612748      -1.95469368
O        4.22400000       7.48800000       5.55300000      -0.89665379       0.43595320       1.30784727
H        4.07600000       5.26900000       2.79000000       0.19939164       0.26133363      -0.02828934
H        3.31400000       6.95700000       2.95400000      -0.01030241      -0.89315298       0.43841169
H        2.81000000       5.47000000       3.99400000      -0.57898060       0.21902715      -0.19971817
H        5.78700000       4.43600000       4.82100000       0.62554997      -1.18153513      -1.12174515
H        4.39900000       4.68900000       5.95500000       0.15753253      -0.65963045      -0.05374377
H        5.94500000       5.33300000       6.33800000       0.75107792       0.61518585       0.47716336
C        6.58600000       4.21800000      13.63400000       1.79547810      -0.12478799       0.98411707
S        7.42300000       4.98500000      12.29600000      -1.10614781       0.90883928      -0.94163884
C        6.42800000       4.57100000      10.89500000      -0.78701114      -1.00222638       0.99145911
O        7.29700000       6.44500000      12.48100000       0.48370425      -0.78146527       0.31324575
O        8.71300000       4.31400000      12.18400000       0.28263677      -0.06869114       0.18569126
H        5.65100000       4.62800000      13.72500000      -2.65377926       1.57737449       0.03982073
H        7.15800000       4.52600000      14.53200000      -0.05633133      -0.52539109      -0.17340807
H        6.38600000       3.16400000      13.54600000       0.66227818      -0.79820470      -0.18937051
H        5.40100000       4.95400000      11.09000000       0.38133731      -0.26450483      -0.07150701
H        6.47300000       3.45400000      10.83500000      -0.18871590       0.76020379      -0.40587078
H        6.84300000       5.08500000      10.05300000       0.51898904       0.21015376      -0.84897679
C        0.20500000      17.53100000      15.18500000       0.45419158      -0.32183375      -0.88187457
S       16.59000000      16.83200000      15.63000000      -3.40747559       0.40216685       0.19266255
C       16.05200000      17.55900000      17.15600000       1.53582135       0.19350587       1.36543535
O       15.59700000      17.33600000      14.67400000       0.47193631      -0.15516917      -0.89646250
O       16.67800000      15.39900000      15.89300000       1.01670272      -0.15139017      -0.43524769
H        1.01100000      17.12500000      15.74200000       0.90310417      -0.92905175       0.53255778
H        0.31000000       0.65000000      15.36000000      -0.57487095       1.32844438       0.22499983
H        0.32700000      17.35500000      14.10400000      -0.05623055      -0.22284010       0.20699439
H       16.22300000       0.76300000      17.12500000      -0.18038347      -1.49546479       0.33038781
H       16.64600000      16.95100000      17.88400000       0.12920309       1.20548701      -0.03316929
H       15.06800000      17.26800000      17.54700000      -0.43557576       0.09044679      -1.14285288
C        1.19500000       6.70100000      12.90300000      -1.19489201      -0.59680606      -1.07380487
S        2.14300000       5.26100000      12.42000000      -1.70559593       0.22286118       0.91939931
C        1.56400000       4.04700000      13.58000000      -0.30194164       0.50021999       0.22749277
O        1.87900000       4.86400000      11.05300000      -1.15429635      -0.56313386      -0.59389094
O        3.50900000       5.53900000      12.70100000       2.92028287       0.54641089       1.00742978
H        0.08700000       6.45200000      12.84500000       1.09777629       0.32482343       0.39399691
H        1.41000000       7.42000000      12.10800000       0.08459856       0.34613068      -0.03274043
H        1.55600000       7.05100000      13.87100000      -0.12167335      -0.11241635       0.21133338
H        0.54100000       3.85000000      13.48200000      -2.10447999       0.14433403      -0.95926633
H        1.56900000       4.28900000      14.63900000       1.05502759       0.51169019       0.26698595
H        1.95900000       3.10700000      13.33600000       1.46877623      -1.47615889      -0.15757264
C       12.73700000       5.26400000       1.24400000       0.66553525      -0.57645115      -0.73268321
S       12.78300000       7.00400000       1.60600000      -0.93071525      -2.19660674      -1.74771009
C       11.59100000       7.63400000       0.45400000       0.92082730       2.15078916      -0.23600364
O       12.26000000       7.21500000       2.90500000      -1.72109711       0.76877791       3.00112607
O       14.13200000       7.39900000       1.38400000       1.78090766       1.22570411      -1.15259273
H       11.80000000       4.75100000       1.40200000      -0.77383887       0.17674433       0.04927674
H       13.45200000       4.78900000       1.91800000       0.36421685       0.10077337       0.18784173
H       13.06900000       5.06700000       0.19800000      -0.14150787       0.28066576       0.49372281
H       10.63700000       7.17700000       0.47200000      -1.13474927      -1.07141374       0.50503104
H       12.01700000       7.52000000      17.40300000       0.42430816      -0.18466281      -1.01569588
H       11.43400000       8.73300000       0.59200000       0.33578199      -0.55844520       0.23556398
C        6.49000000      10.10800000       5.59500000      -0.25359821       1.00538987      -1.01144790
S        5.49300000      10.91000000       6.76300000       0.36420759      -2.61190781       1.67405158
C        6.01000000      10.22700000       8.31200000      -0.27229270      -0.90102004       0.34342331
O        5.75700000      12.31100000       6.76000000       0.64570022       2.19154115       0.59726269
O        4.11100000      10.50600000       6.64900000      -1.36344069      -0.07083955      -0.61838379
H        7.52400000      10.36500000       5.73700000       0.59630624       0.25214811       0.29363286
H        6.14600000      10.52700000       4.64900000       0.02382179       0.05455213      -0.41503265
H        6.33100000       9.06500000       5.59600000      -0.31202911      -1.46150720       0.19213753
H        7.01000000      10.51100000       8.56200000       1.09165604       0.01732255      -0.08061797
H        5.85200000       9.11700000       8.43700000       0.08366319       1.01543465      -0.54437920
H        5.40500000      10.73000000       9.04600000      -0.67996428       0.29143097       0.23898406
C        9.00400000       5.25700000       3.43600000       0.56185705       0.76870334       0.58518261