Created from lammps.lmp
458          atoms
7            atom types
  0.000000000000  18.398000000000 xlo xhi
  0.000000000000  18.398000000000 ylo yhi
  0.000000000000  18.398000000000 zlo zhi
  0.000000000000   0.000000000000   0.000000000000 xy xz yz

Masses

1             15.999000000000 # 8
2              1.008000000000 # 1
3             12.011000000000 # 6
4             32.065000000000 # 16
5             14.007000000000 # 7
6             18.998000000000 # 9
7              6.941000000000 # 3

Atoms # atomic

1            1              3.158000000000   3.049000000000   1.593000000000
2            1             15.954000000000  11.461000000000  18.298000000000
3            1              6.038000000000   2.270000000000   7.300000000000
4            1              5.696000000000  14.798000000000   1.963000000000
5            1              0.099000000000   2.141000000000   2.201000000000
6            1             11.838000000000  14.344000000000  16.484000000000
7            1             16.815000000000   3.514000000000  18.256000000000
8            1             12.747000000000   3.703000000000   8.574000000000
9            1              5.951000000000  15.044000000000   4.672000000000
10           1              4.766000000000   5.119000000000   7.708000000000
11           1              3.248000000000  10.874000000000  18.080000000000
12           1             12.611000000000  15.156000000000  13.870000000000
13           1             10.325000000000  13.205000000000  13.014000000000
14           1             14.501000000000  11.124000000000  14.469000000000
15           1             14.302000000000   4.206000000000   4.548000000000
16           1             13.553000000000  11.623000000000  17.535000000000
17           1             16.638000000000  12.508000000000  15.788000000000
18           1             13.473000000000  16.347000000000   6.811000000000
19           1             12.068000000000   3.623000000000  11.549000000000
20           1              2.839000000000   5.609000000000   9.136000000000
21           1             15.410000000000  18.286000000000   5.706000000000
22           1             14.978000000000   7.496000000000   5.249000000000
23           1              4.719000000000  11.657000000000   1.724000000000
24           1              0.982000000000   3.108000000000  17.575000000000
25           1             12.154000000000   8.965000000000  11.228000000000
26           1             12.598000000000   6.455000000000  11.079000000000
27           1              9.087000000000  15.837000000000  13.779000000000
28           1              7.755000000000  16.818000000000  15.556000000000
29           1              5.610000000000  14.008000000000   8.172000000000
30           1              3.739000000000  13.863000000000   6.430000000000
31           1             10.126000000000  18.381000000000  10.156000000000
32           1             11.425000000000  16.367000000000   9.413000000000
33           1              7.378000000000  10.600000000000   9.874000000000
34           1              9.680000000000  11.031000000000  10.993000000000
35           1             13.262000000000   2.871000000000   2.494000000000
36           1             15.065000000000   1.375000000000   3.262000000000
37           1              2.095000000000  10.480000000000   6.428000000000
38           1             18.270000000000  10.003000000000   5.434000000000
39           1             17.205000000000   9.174000000000   8.686000000000
40           1              0.970000000000   8.087000000000   9.504000000000
41           1             15.284000000000   4.069000000000  10.731000000000
42           1             14.451000000000   5.767000000000   8.970000000000
43           1              4.348000000000   8.309000000000  18.361000000000
44           1              3.296000000000   7.991000000000  16.011000000000
45           1              2.152000000000  11.647000000000  12.232000000000
46           1              3.684000000000   9.828000000000  12.864000000000
47           1             14.057000000000   1.172000000000   9.098000000000
48           1             14.546000000000  17.066000000000   9.695000000000
49           1             10.089000000000   0.027000000000   1.567000000000
50           1             11.362000000000  16.251000000000   1.303000000000
51           1              5.704000000000   8.136000000000   2.965000000000
52           1              5.561000000000   6.830000000000   5.185000000000
53           1              8.786000000000   7.603000000000  11.164000000000
54           1              8.965000000000   5.723000000000  12.992000000000
55           1             15.193000000000  15.176000000000  16.944000000000
56           1             17.531000000000  15.665000000000  16.527000000000
57           1              1.233000000000   4.461000000000  12.070000000000
58           1              3.759000000000   4.453000000000  11.903000000000
59           1             11.787000000000   7.155000000000   1.384000000000
60           1             14.082000000000   6.445000000000   2.337000000000
61           1              3.817000000000   9.782000000000   9.491000000000
62           1              3.654000000000   8.047000000000   7.730000000000
63           1              7.299000000000   4.526000000000   1.682000000000
64           1              8.974000000000   5.188000000000  18.228000000000
65           1             18.253000000000  10.097000000000  16.451000000000
66           1             15.781000000000   9.213000000000  16.314000000000
67           1              8.435000000000  13.246000000000   2.913000000000
68           1              6.649000000000  11.782000000000   4.069000000000
69           1             14.472000000000   5.077000000000  13.462000000000
70           1             14.479000000000   5.037000000000  15.976000000000
71           1             14.329000000000   2.108000000000  16.826000000000
72           1             12.955000000000   0.863000000000  15.088000000000
73           1              2.935000000000   1.870000000000  16.278000000000
74           1              3.726000000000   0.946000000000   0.168000000000
75           1              5.273000000000  16.918000000000  18.359000000000
76           1              5.095000000000  15.846000000000  16.130000000000
77           1              1.524000000000  18.033000000000   2.410000000000
78           1              3.267000000000  16.619000000000   3.479000000000
79           1              5.123000000000   0.039000000000   5.330000000000
80           1              4.909000000000   2.366000000000   4.610000000000
81           1              9.433000000000   8.639000000000   6.807000000000
82           1             10.415000000000   8.315000000000   9.005000000000
83           1             11.424000000000   4.464000000000   5.972000000000
84           1             10.158000000000   6.416000000000   4.936000000000
85           1             10.988000000000  10.576000000000  15.079000000000
86           1             10.644000000000  11.647000000000  17.407000000000
87           1              6.711000000000  10.908000000000  15.424000000000
88           1              7.025000000000  13.265000000000  14.653000000000
89           1              0.901000000000   5.033000000000   1.709000000000
90           1             17.096000000000   5.077000000000   2.920000000000
91           1             17.710000000000   5.447000000000   5.779000000000
92           1              1.621000000000   6.548000000000   6.163000000000
93           1              4.838000000000  15.184000000000  10.775000000000
94           1              5.869000000000  15.720000000000  12.996000000000
95           1              3.916000000000   0.191000000000  10.118000000000
96           1              6.150000000000  18.263000000000   8.952000000000
97           1             16.339000000000  14.425000000000  13.569000000000
98           1             16.853000000000  12.352000000000  12.282000000000
99           1             15.957000000000  13.012000000000   9.146000000000
100          1             13.867000000000  14.388000000000   9.197000000000
101          1             15.007000000000  13.242000000000   1.715000000000
102          1             14.671000000000  15.720000000000   1.593000000000
103          1             12.038000000000  13.300000000000   2.932000000000
104          1             12.176000000000  14.325000000000   5.094000000000
105          2              3.614000000000   2.286000000000   1.224000000000
106          2              3.293000000000   2.970000000000   2.556000000000
107          2             15.939000000000  12.216000000000   0.568000000000
108          2             16.787000000000  10.953000000000   0.217000000000
109          2              6.426000000000   2.414000000000   6.444000000000
110          2              5.807000000000   1.361000000000   7.314000000000
111          2              5.649000000000  15.375000000000   1.162000000000
112          2              5.083000000000  15.269000000000   2.542000000000
113          2              0.482000000000   1.285000000000   2.174000000000
114          2             17.642000000000   2.071000000000   2.678000000000
115          2             11.352000000000  13.584000000000  16.884000000000
116          2             12.674000000000  14.424000000000  16.916000000000
117          2             16.538000000000   3.505000000000   0.830000000000
118          2             16.259000000000   2.969000000000  17.679000000000
119          2             13.107000000000   2.819000000000   8.497000000000
120          2             12.001000000000   3.813000000000   7.946000000000
121          2              6.272000000000  15.466000000000   5.501000000000
122          2              5.020000000000  14.960000000000   4.953000000000
123          2              4.708000000000   5.744000000000   6.946000000000
124          2              5.187000000000   4.264000000000   7.426000000000
125          2              3.625000000000   9.928000000000  18.215000000000
126          2              2.359000000000  10.679000000000  17.802000000000
127          2             12.519000000000  14.302000000000  13.462000000000
128          2             12.383000000000  14.983000000000  14.816000000000
129          2             10.069000000000  14.157000000000  13.293000000000
130          2              9.967000000000  12.674000000000  13.801000000000
131          2             14.806000000000  12.075000000000  14.355000000000
132          2             13.564000000000  11.229000000000  14.410000000000
133          2             13.943000000000   3.741000000000   3.699000000000
134          2             13.899000000000   3.836000000000   5.344000000000
135          2             12.609000000000  11.525000000000  17.606000000000
136          2             13.837000000000  12.157000000000  18.306000000000
137          2             17.250000000000  12.605000000000  16.524000000000
138          2             16.528000000000  13.443000000000  15.429000000000
139          2             13.018000000000  15.594000000000   6.375000000000
140          2             14.277000000000  16.490000000000   6.212000000000
141          2             11.469000000000   3.117000000000  11.014000000000
142          2             11.946000000000   3.367000000000  12.424000000000
143          2              2.622000000000   5.130000000000   9.959000000000
144          2              3.637000000000   5.198000000000   8.730000000000
145          2             15.836000000000   0.368000000000   5.013000000000
146          2             16.099000000000  17.874000000000   6.269000000000
147          2             15.599000000000   7.891000000000   5.850000000000
148          2             14.117000000000   7.687000000000   5.586000000000
149          2              4.195000000000  11.589000000000   0.861000000000
150          2              4.797000000000  10.705000000000   1.971000000000
151          2             18.352000000000   3.163000000000  17.416000000000
152          2              1.518000000000   2.630000000000  16.974000000000
153          2             14.739000000000   7.086000000000  12.647000000000
154          2             14.284000000000   8.813000000000  13.043000000000
155          2             14.836000000000   8.378000000000  11.512000000000
156          2             12.151000000000   7.035000000000  14.169000000000
157          2             10.784000000000   6.915000000000  13.013000000000
158          2             11.331000000000   8.478000000000  13.673000000000
159          2             10.118000000000  18.009000000000  16.432000000000
160          2             10.936000000000  17.982000000000  14.865000000000
161          2             10.651000000000  16.453000000000  15.903000000000
162          2              9.285000000000   0.748000000000  13.858000000000
163          2              7.635000000000   0.265000000000  13.648000000000
164          2              8.904000000000  18.057000000000  12.475000000000
165          2              3.814000000000  12.380000000000   9.557000000000
166          2              2.862000000000  12.246000000000   8.047000000000
167          2              2.335000000000  13.427000000000   9.297000000000
168          2              4.119000000000  16.211000000000   8.977000000000
169          2              2.353000000000  15.583000000000   8.609000000000
170          2              3.309000000000  16.461000000000   7.487000000000
171          2              7.985000000000  16.632000000000  10.153000000000
172          2              9.206000000000  15.547000000000  10.910000000000
173          2              8.587000000000  15.257000000000   9.239000000000
174          2             10.279000000000  18.168000000000   7.287000000000
175          2              8.571000000000  17.812000000000   7.748000000000
176          2              9.726000000000  16.471000000000   7.064000000000
177          2              8.111000000000  12.696000000000   8.358000000000
178          2              9.436000000000  11.369000000000   8.099000000000
179          2              9.773000000000  12.875000000000   8.974000000000
180          2              6.944000000000  13.194000000000  10.853000000000
181          2              8.598000000000  13.780000000000  10.711000000000
182          2              8.186000000000  12.875000000000  12.136000000000
183          2             11.604000000000   0.736000000000   3.391000000000
184          2             12.262000000000   1.890000000000   4.546000000000
185          2             12.874000000000   0.126000000000   4.490000000000
186          2             13.270000000000  17.769000000000   1.788000000000
187          2             14.225000000000   0.476000000000   0.832000000000
188          2             12.386000000000   0.734000000000   0.951000000000
189          2              0.316000000000  12.510000000000   7.176000000000
190          2             18.196000000000  12.881000000000   5.422000000000
191          2              1.551000000000  13.214000000000   5.954000000000
192          2              2.826000000000  11.225000000000   3.691000000000
193          2              1.181000000000  11.915000000000   3.366000000000
194          2              1.441000000000  10.150000000000   3.375000000000
195          2              1.181000000000  10.793000000000   8.421000000000
196          2              1.629000000000  10.742000000000  10.228000000000
197          2              0.065000000000  11.585000000000   9.523000000000
198          2              0.087000000000   8.568000000000  11.878000000000
199          2             16.816000000000   8.499000000000  11.349000000000
200          2             17.585000000000  10.138000000000  11.641000000000
201          2             16.264000000000   6.494000000000  11.154000000000
202          2             16.581000000000   7.049000000000   9.564000000000
203          2             17.586000000000   5.657000000000  10.362000000000
204          2             17.012000000000   4.828000000000   7.736000000000
205          2             15.846000000000   3.420000000000   7.741000000000
206          2             17.110000000000   3.478000000000   8.900000000000
207          2              5.920000000000   6.015000000000  16.321000000000
208          2              6.453000000000   7.588000000000  16.987000000000
209          2              5.602000000000   7.541000000000  15.403000000000
210          2              3.045000000000   5.474000000000  16.756000000000
211          2              2.440000000000   6.230000000000  18.279000000000
212          2              3.901000000000   5.429000000000  18.397000000000
213          2              4.360000000000  13.382000000000  12.569000000000
214          2              5.082000000000  11.996000000000  11.725000000000
215          2              5.415000000000  12.220000000000  13.489000000000
216          2              3.990000000000  11.873000000000  15.186000000000
217          2              2.752000000000  10.541000000000  15.239000000000
218          2              2.126000000000  12.187000000000  15.061000000000
219          2             16.522000000000   1.390000000000  10.144000000000
220          2             16.905000000000  18.154000000000   9.687000000000
221          2             16.382000000000   0.097000000000  11.454000000000
222          2             14.286000000000  18.122000000000  12.299000000000
223          2             12.800000000000  17.771000000000  11.368000000000
224          2             13.243000000000   1.120000000000  11.681000000000
225          2             10.342000000000  17.468000000000   4.123000000000
226          2             10.797000000000  15.781000000000   3.772000000000
227          2              9.056000000000  16.276000000000   3.787000000000
228          2              8.494000000000  15.343000000000   1.706000000000
229          2              8.969000000000  15.739000000000   0.124000000000
230          2              7.855000000000  16.843000000000   1.054000000000
231          2              3.428000000000   8.823000000000   3.464000000000
232          2              3.613000000000   8.654000000000   5.256000000000
233          2              2.628000000000   7.500000000000   4.405000000000
234          2              3.955000000000   6.345000000000   1.969000000000
235          2              3.607000000000   5.358000000000   3.436000000000
236          2              5.302000000000   5.314000000000   2.722000000000
237          2              7.130000000000   8.154000000000  13.258000000000
238          2              6.142000000000   6.621000000000  13.297000000000
239          2              6.045000000000   7.660000000000  11.878000000000
240          2              8.192000000000   4.617000000000  10.429000000000
241          2              6.907000000000   5.930000000000  10.196000000000
242          2              6.717000000000   4.579000000000  11.450000000000
243          2             15.016000000000  17.640000000000  14.950000000000
244          2             15.883000000000  16.278000000000  14.301000000000
245          2             16.726000000000  17.761000000000  14.844000000000
246          2             15.391000000000  18.132000000000  17.864000000000
247          2             17.219000000000  18.116000000000  17.525000000000
248          2             16.341000000000  17.110000000000   0.455000000000
249          2              1.769000000000   5.268000000000  14.781000000000
250          2              2.605000000000   6.498000000000  13.718000000000
251          2              3.519000000000   5.251000000000  14.633000000000
252          2              1.819000000000   2.108000000000  12.642000000000
253          2              1.799000000000   2.809000000000  14.280000000000
254          2              3.337000000000   2.141000000000  13.686000000000
255          2             13.192000000000   8.383000000000  17.909000000000
256          2             14.033000000000   6.755000000000  17.893000000000
257          2             14.861000000000   8.302000000000   0.127000000000
258          2             14.473000000000   9.044000000000   2.613000000000
259          2             12.759000000000   9.033000000000   3.153000000000
260          2             13.173000000000   9.807000000000   1.584000000000
261          2              5.933000000000   9.081000000000   6.759000000000
262          2              6.371000000000  10.295000000000   8.050000000000
263          2              4.865000000000  10.612000000000   7.075000000000
264          2              6.185000000000   7.290000000000   8.647000000000
265          2              5.010000000000   7.136000000000   9.995000000000
266          2              6.354000000000   8.351000000000  10.167000000000
267          2              9.409000000000   7.275000000000   1.145000000000
268          2              9.463000000000   6.612000000000   2.841000000000
269          2              7.900000000000   7.084000000000   2.102000000000
270          2              9.592000000000   3.319000000000   2.784000000000
271          2             10.755000000000   4.686000000000   2.468000000000
272          2             10.397000000000   3.425000000000   1.242000000000
273          2              0.099000000000   9.310000000000  13.947000000000
274          2             17.114000000000  10.423000000000  13.924000000000
275          2             16.800000000000   8.690000000000  13.573000000000
276          2             17.579000000000   6.871000000000  15.219000000000
277          2             17.668000000000   7.007000000000  17.120000000000
278          2              0.598000000000   7.573000000000  16.056000000000
279          2              9.888000000000  11.012000000000   2.765000000000
280          2              8.376000000000  10.074000000000   2.994000000000
281          2              9.454000000000  10.473000000000   4.414000000000
282          2              9.224000000000  12.045000000000   5.974000000000
283          2              7.979000000000  13.339000000000   6.066000000000
284          2              9.503000000000  13.614000000000   5.196000000000
285          3             14.233000000000   8.025000000000  12.335000000000
286          3             11.676000000000   7.476000000000  13.323000000000
287          3             10.246000000000  17.395000000000  15.518000000000
288          3              8.648000000000  18.335000000000  13.514000000000
289          3              3.193000000000  12.931000000000   8.865000000000
290          3              3.396000000000  15.691000000000   8.311000000000
291          3              8.841000000000  15.993000000000   9.957000000000
292          3              9.576000000000  17.393000000000   7.707000000000
293          3              9.010000000000  12.198000000000   8.715000000000
294          3              7.973000000000  13.006000000000  11.067000000000
295          3             12.491000000000   1.007000000000   3.963000000000
296          3             13.319000000000   0.410000000000   1.426000000000
297          3              0.625000000000  12.602000000000   6.107000000000
298          3              1.694000000000  11.073000000000   3.797000000000
299          3              0.843000000000  10.747000000000   9.463000000000
300          3             17.740000000000   9.117000000000  11.329000000000
301          3             16.612000000000   6.174000000000  10.211000000000
302          3             16.438000000000   4.126000000000   8.343000000000
303          3              5.708000000000   7.054000000000  16.410000000000
304          3              3.337000000000   6.007000000000  17.674000000000
305          3              4.668000000000  12.311000000000  12.698000000000
306          3              2.996000000000  11.503000000000  14.844000000000
307          3             16.296000000000   0.357000000000  10.377000000000
308          3             13.626000000000   0.105000000000  11.508000000000
309          3             10.060000000000  16.592000000000   3.546000000000
310          3              8.759000000000  16.205000000000   1.086000000000
311          3              3.460000000000   8.155000000000   4.320000000000
312          3              4.397000000000   5.915000000000   2.873000000000
313          3              6.729000000000   7.373000000000  12.661000000000
314          3              7.391000000000   5.253000000000  10.912000000000
315          3             15.906000000000  17.061000000000  15.045000000000
316          3             16.320000000000  17.570000000000  17.808000000000
317          3              2.570000000000   5.448000000000  14.103000000000
318          3              2.407000000000   2.668000000000  13.361000000000
319          3             13.947000000000   7.716000000000  18.354000000000
320          3             13.439000000000   9.041000000000   2.269000000000
321          3              5.585000000000   9.867000000000   7.430000000000
322          3              5.643000000000   7.820000000000   9.472000000000
323          3              8.884000000000   6.707000000000   1.911000000000
324          3              9.947000000000   4.067000000000   2.035000000000
325          3             17.421000000000   9.433000000000  14.139000000000
326          3             17.909000000000   7.434000000000  16.091000000000
327          3              9.051000000000  10.804000000000   3.476000000000
328          3              8.714000000000  12.877000000000   5.449000000000
329          3             16.372000000000   3.546000000000  14.601000000000
330          3             11.718000000000   2.627000000000  16.671000000000
331          3              5.427000000000   1.803000000000  16.813000000000
332          3              2.864000000000  15.688000000000  17.658000000000
333          3              1.576000000000  17.897000000000   5.233000000000
334          3              6.112000000000   0.889000000000   2.937000000000
335          3             12.022000000000   8.880000000000   7.140000000000
336          3              8.877000000000   4.647000000000   6.528000000000
337          3              9.368000000000   9.360000000000  16.790000000000
338          3              6.952000000000  12.918000000000  17.139000000000
339          3             18.271000000000   7.356000000000   2.426000000000
340          3              1.323000000000   3.845000000000   5.795000000000
341          3              3.534000000000  16.871000000000  12.715000000000
342          3              5.917000000000   1.764000000000  10.903000000000
343          3             17.890000000000  14.865000000000  11.464000000000
344          3             13.862000000000  11.992000000000  10.400000000000
345          3             16.726000000000  14.645000000000   2.937000000000
346          3             13.535000000000  12.119000000000   4.969000000000
347          4             12.610000000000   7.697000000000  11.860000000000
348          4              8.843000000000  17.007000000000  14.605000000000
349          4              4.138000000000  14.119000000000   7.845000000000
350          4             10.127000000000  17.099000000000   9.382000000000
351          4              8.460000000000  11.510000000000  10.289000000000
352          4             13.690000000000   1.482000000000   2.819000000000
353          4              1.016000000000  10.886000000000   5.584000000000
354          4             18.373000000000   9.160000000000   9.601000000000
355          4             15.519000000000   4.997000000000   9.594000000000
356          4              4.139000000000   7.450000000000  17.172000000000
357          4              3.275000000000  11.219000000000  13.027000000000
358          4             14.588000000000   0.095000000000   9.973000000000
359          4             10.164000000000  16.958000000000   1.805000000000
360          4              4.964000000000   7.346000000000   3.905000000000
361          4              8.164000000000   6.508000000000  11.997000000000
362          4             16.137000000000  16.246000000000  16.579000000000
363          4              2.527000000000   4.298000000000  12.678000000000
364          4             13.239000000000   7.394000000000   1.573000000000
365          4              4.550000000000   8.929000000000   8.543000000000
366          4              8.623000000000   5.044000000000   1.231000000000
367          4             17.248000000000   9.131000000000  15.936000000000
368          4              8.048000000000  12.212000000000   3.869000000000
369          4             14.568000000000   4.383000000000  14.706000000000
370          4             13.300000000000   2.102000000000  15.798000000000
371          4              3.783000000000   1.014000000000  17.101000000000
372          4              4.448000000000  16.649000000000  17.161000000000
373          4              2.539000000000  17.880000000000   3.436000000000
374          4              4.793000000000   0.986000000000   4.295000000000
375          4             10.431000000000   8.014000000000   7.582000000000
376          4             10.542000000000   5.624000000000   6.085000000000
377          4             10.116000000000  11.032000000000  16.144000000000
378          4              7.451000000000  12.148000000000  15.534000000000
379          4              0.082000000000   5.555000000000   2.813000000000
380          4              0.694000000000   5.611000000000   5.473000000000
381          4              5.173000000000  16.187000000000  11.818000000000
382          4              5.361000000000   0.043000000000  10.189000000000