Created from lammps.lmp
458          atoms
7            atom types
  0.000000000000  18.748000000000 xlo xhi
  0.000000000000  18.748000000000 ylo yhi
  0.000000000000  18.748000000000 zlo zhi
  0.000000000000   0.000000000000   0.000000000000 xy xz yz

Masses

1             15.999000000000 # 8
2              1.008000000000 # 1
3             12.011000000000 # 6
4             32.065000000000 # 16
5             14.007000000000 # 7
6             18.998000000000 # 9
7              6.941000000000 # 3

Atoms # atomic

1            1              0.521000000000  18.437000000000  17.697000000000
2            1             15.396000000000  11.890000000000   1.932000000000
3            1              4.585000000000   0.971000000000  10.023000000000
4            1              7.003000000000  13.161000000000   1.063000000000
5            1              1.561000000000   1.398000000000   1.612000000000
6            1             11.959000000000  11.293000000000  13.344000000000
7            1             18.160000000000  17.963000000000   1.866000000000
8            1             13.036000000000   2.190000000000  13.513000000000
9            1              4.785000000000  12.593000000000   3.243000000000
10           1              4.417000000000   1.248000000000  12.690000000000
11           1              3.871000000000  13.201000000000  14.025000000000
12           1             13.142000000000  15.232000000000  17.490000000000
13           1             12.826000000000  12.764000000000  15.486000000000
14           1             15.380000000000  13.063000000000  17.893000000000
15           1             14.085000000000   5.454000000000   5.768000000000
16           1             15.326000000000  15.559000000000   0.704000000000
17           1             17.022000000000  16.756000000000  17.455000000000
18           1             17.967000000000  15.553000000000   8.359000000000
19           1             14.765000000000   3.436000000000  11.878000000000
20           1              2.199000000000   7.137000000000   6.782000000000
21           1              0.035000000000  17.889000000000   6.844000000000
22           1             15.741000000000   8.094000000000   4.985000000000
23           1              4.143000000000  10.552000000000   1.324000000000
24           1             15.720000000000   1.030000000000   0.854000000000
25           1             11.551000000000   7.870000000000  12.018000000000
26           1             13.481000000000   6.254000000000  11.586000000000
27           1              6.954000000000  18.111000000000  10.845000000000
28           1              7.321000000000  17.602000000000  13.367000000000
29           1              7.249000000000  14.830000000000   3.787000000000
30           1              6.669000000000  12.912000000000   5.377000000000
31           1             10.028000000000   2.063000000000   9.450000000000
32           1             11.532000000000  18.741000000000   9.847000000000
33           1             10.136000000000  14.704000000000   8.856000000000
34           1             11.176000000000  12.393000000000   9.167000000000
35           1             13.764000000000   1.008000000000   3.160000000000
36           1             12.797000000000   3.246000000000   3.850000000000
37           1             17.540000000000  10.563000000000   4.127000000000
38           1              0.575000000000   8.909000000000   4.962000000000
39           1              1.126000000000   8.478000000000   8.859000000000
40           1              2.180000000000  10.570000000000   8.025000000000
41           1             16.127000000000   6.399000000000  10.765000000000
42           1             15.765000000000   6.960000000000   8.315000000000
43           1              5.789000000000   4.394000000000   0.440000000000
44           1              3.973000000000   3.377000000000  17.786000000000
45           1              3.024000000000   8.332000000000  15.449000000000
46           1              3.622000000000   6.406000000000  13.849000000000
47           1             15.462000000000   0.821000000000  10.715000000000
48           1             15.786000000000  17.188000000000  10.008000000000
49           1              7.236000000000  18.485000000000   0.659000000000
50           1              9.545000000000   0.670000000000   0.712000000000
51           1              3.093000000000   6.728000000000   3.731000000000
52           1              2.123000000000   7.094000000000   1.323000000000
53           1              8.291000000000   6.642000000000  12.919000000000
54           1              7.102000000000   4.625000000000  13.875000000000
55           1             11.146000000000   0.056000000000  16.139000000000
56           1             10.561000000000   1.975000000000  14.570000000000
57           1             18.176000000000   2.521000000000   9.973000000000
58           1              1.490000000000   4.043000000000  10.510000000000
59           1             11.357000000000   8.417000000000   1.947000000000
60           1             13.407000000000   8.220000000000   3.221000000000
61           1              5.754000000000   9.804000000000   4.046000000000
62           1              3.388000000000   9.490000000000   4.757000000000
63           1              8.325000000000  10.608000000000   1.766000000000
64           1              6.556000000000   9.508000000000   0.381000000000
65           1             16.503000000000   9.408000000000  18.500000000000
66           1             18.163000000000  11.225000000000  18.523000000000
67           1             12.924000000000  13.920000000000   1.449000000000
68           1             12.620000000000  11.618000000000   0.482000000000
69           1             16.121000000000   5.604000000000  13.742000000000
70           1             15.911000000000   6.670000000000  15.913000000000
71           1             12.401000000000   4.725000000000  17.142000000000
72           1             11.786000000000   4.675000000000  14.702000000000
73           1              4.174000000000  16.242000000000  14.538000000000
74           1              2.619000000000  16.507000000000  16.527000000000
75           1              4.284000000000  14.780000000000   0.375000000000
76           1              4.461000000000  12.680000000000  17.898000000000
77           1              2.960000000000  17.498000000000   2.151000000000
78           1              4.451000000000  15.719000000000   3.085000000000
79           1              2.647000000000   0.525000000000   6.210000000000
80           1              2.925000000000   1.230000000000   3.775000000000
81           1              7.637000000000   7.895000000000   7.976000000000
82           1              9.075000000000   7.463000000000   9.989000000000
83           1             11.433000000000   6.778000000000   5.532000000000
84           1              8.892000000000   7.101000000000   5.386000000000
85           1              8.353000000000  10.099000000000  12.483000000000
86           1              9.475000000000  10.225000000000  14.744000000000
87           1              7.147000000000  13.159000000000  16.134000000000
88           1              7.330000000000  14.635000000000  13.970000000000
89           1             17.860000000000   3.083000000000   1.433000000000
90           1             16.072000000000   3.818000000000   3.140000000000
91           1             17.239000000000   5.195000000000   5.569000000000
92           1              0.838000000000   4.551000000000   5.807000000000
93           1              6.434000000000  15.501000000000   9.352000000000
94           1              5.299000000000  15.214000000000  11.486000000000
95           1              2.357000000000  15.996000000000   8.141000000000
96           1              4.063000000000  17.170000000000   9.696000000000
97           1             16.302000000000  15.981000000000  14.692000000000
98           1             16.065000000000  13.635000000000  15.072000000000
99           1             17.139000000000  12.413000000000  11.307000000000
100          1             15.674000000000  14.103000000000  10.344000000000
101          1             15.283000000000  17.032000000000   2.888000000000
102          1             17.273000000000  17.457000000000   4.324000000000
103          1             13.574000000000  17.449000000000   7.351000000000
104          1             14.895000000000  15.315000000000   7.283000000000
105          2              1.253000000000  18.189000000000  17.099000000000
106          2             18.720000000000  17.662000000000  17.681000000000
107          2             15.764000000000  11.453000000000   2.759000000000
108          2             15.741000000000  11.332000000000   1.192000000000
109          2              5.514000000000   0.844000000000   9.910000000000
110          2              4.187000000000   0.115000000000   9.851000000000
111          2              6.602000000000  12.897000000000   0.198000000000
112          2              7.755000000000  12.596000000000   1.167000000000
113          2              0.958000000000   2.133000000000   1.588000000000
114          2              2.056000000000   1.273000000000   2.476000000000
115          2             11.245000000000  10.815000000000  13.879000000000
116          2             12.209000000000  11.988000000000  14.021000000000
117          2             18.323000000000  17.922000000000   2.812000000000
118          2             17.535000000000  18.591000000000   1.598000000000
119          2             12.912000000000   3.022000000000  13.919000000000
120          2             12.200000000000   1.694000000000  13.629000000000
121          2              5.570000000000  12.291000000000   3.747000000000
122          2              4.405000000000  11.821000000000   2.758000000000
123          2              4.671000000000   1.161000000000  11.764000000000
124          2              4.549000000000   0.348000000000  13.073000000000
125          2              4.144000000000  13.217000000000  14.973000000000
126          2              3.042000000000  12.707000000000  14.066000000000
127          2             12.992000000000  16.182000000000  17.242000000000
128          2             13.894000000000  15.363000000000  18.101000000000
129          2             13.636000000000  13.307000000000  15.399000000000
130          2             12.363000000000  13.178000000000  16.234000000000
131          2             15.756000000000  13.535000000000  17.164000000000
132          2             14.508000000000  12.663000000000  17.570000000000
133          2             13.164000000000   5.762000000000   5.673000000000
134          2             14.294000000000   4.782000000000   5.057000000000
135          2             15.306000000000  16.282000000000   1.399000000000
136          2             15.908000000000  15.986000000000  18.730000000000
137          2             17.560000000000  16.142000000000  16.959000000000
138          2             16.223000000000  16.979000000000  16.861000000000
139          2             18.367000000000  16.172000000000   7.733000000000
140          2             18.629000000000  14.849000000000   8.546000000000
141          2             14.110000000000   2.929000000000  12.388000000000
142          2             15.311000000000   2.722000000000  11.443000000000
143          2              1.759000000000   7.603000000000   7.516000000000
144          2              2.173000000000   6.204000000000   6.977000000000
145          2             18.646000000000  17.988000000000   5.850000000000
146          2              0.979000000000  17.970000000000   6.951000000000
147          2             16.373000000000   8.906000000000   5.075000000000
148          2             15.162000000000   8.341000000000   4.282000000000
149          2              5.094000000000  10.203000000000   1.256000000000
150          2              3.985000000000  11.198000000000   0.603000000000
151          2             16.402000000000   1.732000000000   1.064000000000
152          2             15.097000000000   1.193000000000   1.609000000000
153          2             13.610000000000   9.590000000000  10.207000000000
154          2             12.432000000000   8.424000000000   9.484000000000
155          2             14.200000000000   8.010000000000   9.734000000000
156          2             14.833000000000   8.947000000000  12.387000000000
157          2             14.218000000000   7.812000000000  13.568000000000
158          2             13.213000000000   9.251000000000  13.181000000000
159          2              9.900000000000  16.487000000000  11.623000000000
160          2              8.526000000000  16.038000000000  10.531000000000
161          2              8.574000000000  15.449000000000  12.290000000000
162          2              8.915000000000   0.950000000000  12.941000000000
163          2              8.989000000000   0.964000000000  11.062000000000
164          2             10.072000000000  18.670000000000  12.093000000000
165          2              9.200000000000  12.844000000000   4.177000000000
166          2              9.512000000000  13.010000000000   5.914000000000
167          2              9.767000000000  14.466000000000   4.754000000000
168          2              7.443000000000  14.636000000000   7.296000000000
169          2              6.478000000000  15.829000000000   6.270000000000
170          2              8.298000000000  15.821000000000   6.322000000000
171          2             10.870000000000   1.594000000000   6.716000000000
172          2              9.955000000000   0.183000000000   7.332000000000
173          2             11.707000000000   0.040000000000   7.048000000000
174          2             13.457000000000   1.578000000000   8.883000000000
175          2             12.689000000000   2.935000000000   9.755000000000
176          2             12.625000000000   2.841000000000   7.968000000000
177          2             12.540000000000  15.312000000000   8.946000000000
178          2             13.418000000000  13.733000000000   9.312000000000
179          2             12.918000000000  14.848000000000  10.569000000000
180          2             10.900000000000  14.454000000000  11.820000000000
181          2             10.838000000000  12.711000000000  11.767000000000
182          2              9.442000000000  13.699000000000  11.246000000000
183          2             13.088000000000   1.798000000000   0.601000000000
184          2             12.972000000000   3.470000000000   1.258000000000
185          2             11.464000000000   2.586000000000   0.919000000000
186          2             10.807000000000   0.772000000000   2.481000000000
187          2             10.436000000000   1.898000000000   3.823000000000
188          2             11.339000000000   0.336000000000   4.091000000000
189          2              0.205000000000  10.451000000000   1.924000000000
190          2              1.096000000000   8.953000000000   2.384000000000
191          2              1.977000000000  10.433000000000   2.466000000000
192          2              1.425000000000  11.251000000000   5.883000000000
193          2              0.404000000000  12.454000000000   4.991000000000
194          2              2.048000000000  11.973000000000   4.332000000000
195          2             18.398000000000  11.259000000000   8.493000000000
196          2              0.138000000000  11.509000000000  10.147000000000
197          2             17.945000000000   9.984000000000   9.639000000000
198          2              2.041000000000  10.904000000000  11.133000000000
199          2              3.389000000000   9.973000000000  10.425000000000
200          2              1.959000000000   9.080000000000  11.181000000000
201          2             17.929000000000   4.582000000000   9.619000000000
202          2             18.626000000000   6.179000000000   9.349000000000
203          2             18.026000000000   5.147000000000   8.028000000000
204          2             15.749000000000   3.697000000000   9.619000000000
205          2             15.484000000000   4.212000000000   7.938000000000
206          2             14.263000000000   4.548000000000   9.134000000000
207          2              7.072000000000   1.936000000000  18.315000000000
208          2              6.761000000000   3.101000000000  16.984000000000
209          2              5.718000000000   1.584000000000  17.134000000000
210          2              5.596000000000   2.166000000000   2.006000000000
211          2              4.986000000000   0.987000000000   0.840000000000
212          2              3.917000000000   2.157000000000   1.629000000000
213          2              5.423000000000   5.869000000000  15.818000000000
214          2              4.270000000000   5.681000000000  17.138000000000
215          2              5.034000000000   7.284000000000  16.873000000000
216          2              1.891000000000   5.882000000000  16.935000000000
217          2              2.069000000000   4.828000000000  15.564000000000
218          2              0.939000000000   6.134000000000  15.420000000000
219          2             16.707000000000  17.601000000000  13.168000000000
220          2             17.360000000000   0.262000000000  12.252000000000
221          2             17.568000000000  17.288000000000  11.673000000000
222          2             13.356000000000  17.334000000000  11.374000000000
223          2             13.757000000000  18.329000000000  12.811000000000
224          2             14.330000000000  16.636000000000  12.621000000000
225          2              8.098000000000  17.033000000000   2.845000000000
226          2              8.755000000000  18.601000000000   3.382000000000
227          2              9.895000000000  17.440000000000   2.773000000000
228          2              8.785000000000  16.925000000000  17.761000000000
229          2              9.220000000000  16.033000000000   0.531000000000
230          2             10.418000000000  17.136000000000  18.419000000000
231          2              5.355000000000   5.862000000000   1.978000000000
232          2              5.068000000000   7.665000000000   1.829000000000
233          2              4.577000000000   6.576000000000   0.465000000000
234          2              3.248000000000   4.305000000000   1.314000000000
235          2              1.762000000000   4.552000000000   2.245000000000
236          2              3.385000000000   4.353000000000   3.138000000000
237          2              5.991000000000   4.780000000000  10.961000000000
238          2              6.605000000000   6.487000000000  10.914000000000
239          2              5.448000000000   5.878000000000  12.059000000000
240          2              9.230000000000   4.649000000000  11.072000000000
241          2              8.493000000000   3.157000000000  11.855000000000
242          2              9.727000000000   4.145000000000  12.781000000000
243          2              8.570000000000  18.437000000000  15.168000000000
244          2              7.854000000000   1.260000000000  15.354000000000
245          2              8.285000000000   0.386000000000  16.821000000000
246          2             11.174000000000   2.697000000000  17.345000000000
247          2              9.636000000000   2.007000000000  17.955000000000
248          2              9.655000000000   3.328000000000  16.747000000000
249          2              2.449000000000   1.440000000000  11.812000000000
250          2              0.802000000000   0.720000000000  11.507000000000
251          2              1.049000000000   2.120000000000  12.551000000000
252          2              1.208000000000   1.183000000000   8.476000000000
253          2              2.762000000000   1.875000000000   9.203000000000
254          2              1.639000000000   2.832000000000   8.090000000000
255          2             12.290000000000   5.693000000000   0.924000000000
256          2             12.111000000000   5.558000000000   2.704000000000
257          2             13.752000000000   5.662000000000   1.947000000000
258          2             13.377000000000   7.649000000000  18.479000000000
259          2             14.725000000000   8.052000000000   0.849000000000
260          2             13.474000000000   9.300000000000   0.479000000000
261          2              4.499000000000   7.509000000000   6.532000000000
262          2              6.198000000000   7.719000000000   6.389000000000
263          2              5.356000000000   7.020000000000   5.002000000000
264          2              6.349000000000  10.018000000000   6.892000000000
265          2              4.571000000000   9.958000000000   7.323000000000
266          2              5.424000000000  11.351000000000   6.313000000000
267          2              9.587000000000   8.133000000000  18.603000000000
268          2              9.816000000000   9.918000000000  18.500000000000
269          2              8.592000000000   9.055000000000  17.451000000000
270          2              9.023000000000   7.764000000000   2.420000000000
271          2              7.451000000000   7.132000000000   1.760000000000
272          2              7.538000000000   8.319000000000   3.095000000000
273          2              0.116000000000   7.947000000000  18.317000000000
274          2              1.166000000000   9.483000000000  18.146000000000
275          2              0.538000000000   8.537000000000  16.739000000000
276          2             17.922000000000  10.911000000000  15.833000000000
277          2             16.193000000000  10.370000000000  16.262000000000
278          2             17.414000000000   9.114000000000  15.744000000000
279          2             11.558000000000  11.185000000000   3.394000000000
280          2             12.270000000000  12.810000000000   3.797000000000
281          2             13.322000000000  11.425000000000   3.110000000000
282          2             10.199000000000  13.166000000000   0.332000000000
283          2             10.219000000000  13.921000000000   1.955000000000
284          2              9.904000000000  12.141000000000   1.778000000000
285          3             13.345000000000   8.522000000000  10.139000000000
286          3             13.926000000000   8.525000000000  12.808000000000
287          3              8.845000000000  16.295000000000  11.582000000000
288          3              9.094000000000   0.398000000000  11.989000000000
289          3              9.182000000000  13.556000000000   5.003000000000
290          3              7.398000000000  15.179000000000   6.353000000000
291          3             10.947000000000   0.737000000000   7.383000000000
292          3             12.620000000000   2.267000000000   8.898000000000
293          3             12.642000000000  14.437000000000   9.586000000000
294          3             10.521000000000  13.615000000000  11.278000000000
295          3             12.510000000000   2.493000000000   1.253000000000
296          3             11.142000000000   1.189000000000   3.379000000000
297          3              0.971000000000   9.995000000000   2.569000000000
298          3              1.116000000000  11.617000000000   4.876000000000
299          3             18.701000000000  10.743000000000   9.402000000000
300          3              2.307000000000   9.996000000000  10.600000000000
301          3             17.843000000000   5.503000000000   9.087000000000
302          3             15.328000000000   4.425000000000   8.959000000000
303          3              6.323000000000   2.345000000000  17.631000000000
304          3              4.877000000000   2.017000000000   1.192000000000
305          3              4.604000000000   6.400000000000  16.389000000000
306          3              1.911000000000   5.843000000000  15.845000000000
307          3             16.935000000000  17.974000000000  12.173000000000
308          3             14.109000000000  17.592000000000  12.108000000000
309          3              8.882000000000  17.780000000000   2.663000000000
310          3              9.340000000000  16.974000000000  18.725000000000
311          3              4.677000000000   6.661000000000   1.593000000000
312          3              2.889000000000   4.734000000000   2.229000000000
313          3              6.369000000000   5.625000000000  11.522000000000
314          3              8.910000000000   4.189000000000  12.011000000000
315          3              8.565000000000   0.562000000000  15.817000000000
316          3             10.107000000000   2.422000000000  17.117000000000
317          3              1.372000000000   1.644000000000  11.654000000000
318          3              1.755000000000   2.083000000000   8.832000000000
319          3             12.662000000000   5.979000000000   1.894000000000
320          3             13.664000000000   8.258000000000   0.624000000000
321          3              5.258000000000   7.731000000000   5.802000000000
322          3              5.336000000000  10.271000000000   6.584000000000
323          3              9.076000000000   9.104000000000  18.450000000000
324          3              8.018000000000   7.992000000000   2.164000000000
325          3              0.349000000000   8.871000000000  17.771000000000
326          3             17.249000000000  10.113000000000  16.205000000000
327          3             12.318000000000  11.926000000000   3.115000000000
328          3             10.433000000000  13.014000000000   1.387000000000
329          3             16.376000000000   3.917000000000  16.081000000000
330          3             12.164000000000   7.043000000000  15.943000000000
331          3              5.283000000000  17.275000000000  16.692000000000
332          3              2.061000000000  13.645000000000  18.081000000000
333          3              2.088000000000  15.510000000000   3.711000000000
334          3              4.982000000000   1.076000000000   5.296000000000
335          3              9.656000000000   9.527000000000   8.566000000000
336          3              9.969000000000   4.701000000000   6.285000000000
337          3              6.790000000000   9.843000000000  14.482000000000
338          3              9.494000000000  13.982000000000  15.421000000000
339          3             17.315000000000   5.652000000000   1.604000000000
340          3             17.608000000000   2.578000000000   5.418000000000
341          3              6.073000000000  12.948000000000  10.100000000000
342          3              1.800000000000  15.814000000000  10.665000000000
343          3             18.468000000000  14.797000000000  14.491000000000
344          3             14.623000000000  12.639000000000  12.248000000000
345          3             16.602000000000  14.979000000000   4.005000000000
346          3             12.944000000000  15.534000000000   5.472000000000
347          4             12.993000000000   7.647000000000  11.660000000000
348          4              7.839000000000  17.801000000000  12.006000000000
349          4              7.500000000000  14.058000000000   5.004000000000
350          4             11.202000000000   1.221000000000   9.120000000000
351          4             11.055000000000  13.760000000000   9.598000000000
352          4             12.698000000000   2.009000000000   3.031000000000
353          4              0.231000000000  10.168000000000   4.219000000000
354          4              1.490000000000   9.875000000000   9.086000000000
355          4             16.211000000000   5.983000000000   9.331000000000
356          4              5.157000000000   3.233000000000  18.608000000000
357          4              3.289000000000   6.905000000000  15.232000000000
358          4             15.578000000000  18.187000000000  11.118000000000
359          4              8.660000000000  18.303000000000   0.941000000000
360          4              3.083000000000   6.491000000000   2.290000000000
361          4              7.684000000000   5.306000000000  12.723000000000
362          4             10.231000000000   1.208000000000  15.790000000000
363          4              0.899000000000   2.706000000000  10.223000000000
364          4             12.675000000000   7.784000000000   1.990000000000
365          4              4.850000000000   9.380000000000   5.112000000000
366          4              7.881000000000   9.422000000000   1.055000000000
367          4             17.697000000000   9.998000000000  17.948000000000
368          4             12.208000000000  12.619000000000   1.442000000000
369          4             15.648000000000   5.536000000000  15.095000000000
370          4             12.637000000000   5.157000000000  15.772000000000
371          4              3.883000000000  16.069000000000  15.972000000000
372          4              3.921000000000  14.026000000000  17.867000000000
373          4              3.391000000000  16.696000000000   3.317000000000
374          4              3.301000000000   0.398000000000   4.911000000000
375          4              8.982000000000   7.792000000000   8.544000000000
376          4             10.050000000000   6.694000000000   6.173000000000
377          4              8.392000000000  10.637000000000  13.888000000000
378          4              7.810000000000  13.429000000000  14.855000000000
379          4             17.352000000000   3.949000000000   2.543000000000
380          4             18.311000000000   4.301000000000   5.081000000000
381          4              5.494000000000  14.716000000000  10.117000000000
382          4              3.198000000000  16.058000000000   9.313000000000