458
Lattice="18.51 0.0 0.0 0.0 18.51 0.0 0.0 0.0 18.51" Properties=species:S:1:pos:R:3:forces:R:3 virial="-20.754891184317543 9.878624800905637 28.93109131349677 9.878624800905637 0.26562577532285125 -0.3409193975095213 28.93109131349677 -0.3409193975095213 -35.176253488916956" energy=-108874.93330889882 pbc="T T T"
O        0.78700000      16.40100000       1.92000000      -0.81465719      -2.17007912       0.06366823
H        0.05200000      15.68900000       1.85400000       0.62406541       1.53318185      -0.06968307
H        1.49900000      16.02200000       1.33700000      -0.11014298       0.80958183       0.36889266
O       15.09600000      11.41800000       0.08900000      -0.52514838      -0.90824484       1.01303735
H       15.82800000      11.96100000       0.35900000       0.75124761       1.02532003      -0.07855492
H       15.09600000      10.79200000       0.86100000      -0.53404234       0.12860762      -0.60470552
O       14.44300000      14.87200000       0.33900000       0.61662104      -0.59602290      -0.57164113
H       15.28600000      15.35100000       0.17400000      -0.36257700      -0.29203878      -0.12077501
H       14.46900000      14.12300000      18.20300000      -0.03087175       0.66745329       0.47154653
O        1.42600000       8.20600000      18.10400000      -0.63377544      -0.53903902      -0.91015980
H        2.26600000       8.66200000      18.16900000       0.70079073       0.08738872       0.22189651
H        0.95200000       8.33000000       0.41500000      -0.02721924       0.20501156       0.90853743
O       14.82700000       8.89500000      17.66500000      -0.71397689      -1.83896575      -2.62666492
H       14.79000000       8.18100000      16.91400000      -0.30260447       1.32250616       1.39417155
H       15.62800000       8.64400000      18.11500000       0.75324433       0.01435961       0.69398914
O       16.52000000      15.44400000       2.41200000      -0.06563667       0.17645740       0.98625314
H       16.39700000      15.64900000       3.38000000       0.12499573      -0.04561754      -0.61658761
H       15.80200000      14.78800000       2.31100000       0.04374630      -0.14935385      -0.39596843
O        1.55300000       0.27900000       4.30400000       1.01414242       0.66000481       1.56621899
H        2.49800000       0.21600000       3.95900000      -0.89210756       0.21370754       0.62410038
H        1.60200000       0.67600000       5.27200000       0.12417452      -1.00845411      -1.96073217
O       17.44900000       3.66600000      15.42700000       0.56814443       0.65376474      -1.04929557
H       17.36300000       3.15700000      16.21000000      -0.51684269      -1.14196893       1.44559156
H       18.41900000       3.85500000      15.42000000      -0.43853253       0.48079325      -0.54332094
O        4.64100000      14.79200000       3.73000000       0.71480582       1.33509685       0.51908366
H        5.07400000      15.58800000       4.15200000      -0.48368214      -0.83959535      -0.30067408
H        4.60800000      15.09600000       2.79900000      -0.40809993      -0.21191034      -0.04695143
O        2.35700000       2.72600000       0.68400000      -0.11191910       0.28621626      -0.38457536
H        1.54700000       2.56200000       1.18900000      -0.54370197      -0.27754598       0.42543842
H        3.01200000       2.08600000       1.03100000       0.28262391       0.37467455      -0.06541761
O       13.17500000      11.36300000      15.45400000       1.10851785      -0.40614589      -2.31626641
H       13.46000000      11.37200000      14.43500000      -0.47939251       0.37058650       2.66550760
H       12.20800000      11.33500000      15.44600000      -0.42928016       0.02051226      -0.04128883
O       10.82700000      11.10200000      11.99000000       1.66994758       0.40445307      -0.49105812
H       10.34300000      11.31500000      12.79300000      -0.43481678       0.11497049       0.55792120
H       11.69900000      11.59700000      12.09100000      -1.17535934      -0.78499643      -0.19772402
O       16.17800000      11.05300000      15.68300000       0.42297479      -2.75835735      -1.04789432
H       16.38400000      11.93100000      15.98100000       1.14337018       1.03699284       0.14223858
H       16.98700000      10.49300000      15.36000000      -1.73118715       1.67429018       0.87037917
O        4.13600000       4.77900000      17.63300000      -0.70985027       2.15743958      -0.68205459
H        3.91100000       5.75600000      17.23900000       1.18157729      -2.22990099       1.31046928
H        4.63100000       4.88400000      18.48700000      -0.29256740       0.53503427      -0.69307537
O       10.02700000       1.74300000       5.09900000      -0.05268551      -0.58760665      -2.07634338
H       10.15900000       1.49600000       4.09200000      -0.10909140       0.44863183       2.73557377
H        9.93700000       0.86400000       5.54500000       0.33072463       0.27991654      -0.49634071
O        0.18100000       2.18900000       2.40900000       0.13490322      -1.65043085      -0.90226959
H       17.85100000       2.23500000       1.94700000      -0.76142712      -0.62492107      -0.44449904
H        0.21900000       3.07400000       2.68900000       0.50808191       2.48601271       1.31327949
O        0.94400000       5.56200000      17.30300000       0.28354025       0.07785918       0.61354034
H        0.02300000       5.47400000      17.59900000       0.00406440      -0.01195152      -0.11033273
H        1.20400000       6.47200000      17.64500000       0.01023351      -0.33955071      -0.36552605
O        1.97800000      14.17400000      10.85400000       1.01033410      -1.25701758      -0.24960734
H        2.27300000      13.21200000      10.68400000      -0.08568356       1.22619159       0.30765720
H        1.02900000      14.16600000      10.74100000      -0.86238407      -0.23903188      -0.27624603
O       14.60200000       4.09400000      14.71700000      -0.03412626      -0.87517479      -1.37949003
H       15.09200000       4.40800000      15.48300000      -0.28529066       0.95346026       0.15634931
H       13.88300000       4.65700000      14.34100000       0.28713157       0.22390248       1.25415440
O        0.99200000       8.17700000       3.24200000      -1.40592098      -0.87465337      -0.54376522
H        0.03000000       7.89800000       3.23900000       0.94025507       0.34087483       0.00262561
H        1.35700000       7.71100000       4.00600000       0.34005825      -0.07823148       0.24552700
O        1.79600000       0.96400000       7.24500000      -1.25705409       0.64401923       0.12221483
H        2.28800000       1.69100000       7.70900000      -0.14404195      -0.59953246      -0.23031070
H        0.84500000       1.08300000       7.54900000       1.49658837      -0.18483868      -0.20029307
O        7.92800000       4.04400000       5.05000000      -0.70790395       0.95612444      -0.38928613
H        8.03200000       4.48400000       4.13300000       0.28088070      -0.41448398       0.98066408
H        7.10600000       4.49100000       5.38100000       0.44544726      -0.41659999      -0.04849872
O        1.52800000      14.57100000       4.22300000      -2.60452360       1.52961830      -2.62395497
H        1.42200000      15.12500000       3.31200000       0.96778851      -1.06665155       2.30835101
H        0.52100000      14.51100000       4.36500000       1.88244053      -0.25040490       0.44716527
O       16.87300000       0.01200000       2.57400000      -1.41828644       0.08174566       0.65656673
H       16.09500000       0.41700000       3.09200000       1.19070625      -0.29916588      -0.82728336
H       16.37500000      17.82100000       2.09800000       0.49256170      -0.01792368       0.03397559
C        5.04900000       9.75300000      15.58600000       1.26892436       0.07902646      -3.24824150
S        4.89100000       7.94200000      15.46000000      -2.09205436      -0.42181985      -1.09557954
C        6.59800000       7.40400000      15.60400000       0.83836071       2.24015146      -0.35931581
O        3.98600000       7.46400000      16.54900000       1.02583734       0.19858225      -0.09181513
O        4.42500000       7.52600000      14.08300000       1.04670647       0.81055525       1.78779359
H        6.04100000      10.00400000      15.96200000       0.14643411      -0.19292326       0.17364461
H        4.33500000      10.38400000      16.03800000      -1.46631671       0.00775033       1.28820507
H        4.99900000      10.12500000      14.49300000       0.31051884      -0.70340143       1.24426131
H        7.29800000       8.03700000      16.22700000      -1.09527872      -0.69135838      -0.09829482
H        6.98300000       7.49100000      14.58900000      -0.02107739       0.37725028      -0.48652783
H        6.64800000       6.37400000      15.75400000      -0.15497531      -2.12809866       0.98715251
C       11.90100000      16.98400000      15.53000000       0.71299782       2.04162217       0.73115804
S       10.72200000      16.55200000      16.73800000       0.76589004      -0.46016117       1.92140252
C       10.29600000      14.91100000      16.35100000      -3.40546756      -0.75957438       0.31248933
O       11.40300000      16.42900000      18.03800000       0.33947615       0.01238809      -0.16895440
O        9.65300000      17.54500000      16.77600000      -0.68238369      -0.22790826      -0.95652605
H       11.80200000      16.71800000      14.49500000      -0.36112535      -0.47345583      -0.44410720
H       12.90000000      16.87300000      15.94000000       0.39039222      -0.95110976      -0.04970766
H       11.80600000      18.07200000      15.64900000      -0.09637370       0.36947321      -0.62503626
H        9.93900000      14.78000000      15.34900000       0.06438711       0.31139713      -1.11868605
H        9.30800000      14.70400000      16.89100000       1.31066057       0.19120113      -0.11234128
H       10.99500000      14.12100000      16.54800000       0.90703488      -0.00996405       0.54470728
C        6.83000000      14.32700000       6.85200000      -0.49416041       0.02385367      -2.74189200
S        5.31100000      15.17800000       7.32500000       0.22540195      -3.12015684       1.40682241
C        5.57000000      15.09600000       9.07600000       1.47131185       0.47224947      -0.07054799
O        5.16400000      16.55000000       6.93700000       0.00298197       1.52638745      -1.19978842
O        4.26400000      14.15700000       7.00500000      -0.34699251       0.89960799      -0.66898927
H        7.12000000      13.60500000       7.57800000      -0.28643789      -0.70493535       0.91991713
H        7.66000000      15.00500000       6.74400000       0.32068293       0.74664533      -0.04522828
H        6.67600000      13.75800000       5.87900000      -0.08414861       0.75642016       0.92359638
H        5.22300000      15.96000000       9.65600000       0.10606418       0.11700526      -0.31865998
H        6.68700000      14.93400000       9.07500000      -0.97425586       0.45529973       0.86765946
H        5.10000000      14.20300000       9.41400000      -0.42937632      -1.03217716       0.47718907
C       13.44500000       2.83100000       6.09200000       0.44458028       0.98151563      -0.01709527
S       12.38600000       3.53100000       7.36800000       0.26847924      -0.09408336       0.08109054
C       12.22100000       2.05000000       8.52800000      -0.86671998      -1.16764140      -0.84609921
O       13.20500000       4.55200000       8.03200000      -0.04851106      -0.57067131       0.52436471
O       11.13300000       4.09200000       6.78900000       0.19183876      -1.00342451       0.29131835
H       13.00900000       1.91600000       5.72100000      -0.40837760      -0.30194729      -0.64797924
H       14.43800000       2.59900000       6.53100000      -0.45311840       0.18370739       0.08770548
H       13.59500000       3.65900000       5.34200000      -0.27437118      -0.85154738       0.29760162
H       13.22600000       1.70800000       8.60900000       1.50243043       0.00214841       0.01037337
H       11.68700000       1.04800000       8.29900000       0.03772631       1.97729934      -0.53332037
H       11.93700000       2.33700000       9.52100000      -0.55125999       0.76382750       0.55647162
C        6.42600000       1.51800000       7.16000000       3.30725501      -0.70220793      -1.15736059
S        7.58800000       1.69600000       8.57400000      -0.46702396       0.23412416      -0.66250032
C        7.64600000       0.11000000       9.36800000       0.79930616      -2.05601521      -1.03052909
O        8.95300000       1.97600000       8.05900000       0.07708785       0.48598533      -0.29256174
O        6.92800000       2.65500000       9.45000000       0.32045615       0.24232855       0.39558431
H        6.97200000       0.98700000       6.27400000      -0.89373456       0.98119115       1.43936897
H        6.16900000       2.55600000       6.94300000      -0.56777264      -0.06663323      -0.10421093
H        5.71400000       0.86000000       7.57300000      -1.71032727      -0.46811462       0.17892360
H        6.66700000      18.10100000       9.07500000       1.37426401       0.34841742       0.52680828
H        7.72900000       0.19200000      10.45800000      -0.23204414       0.32055283       0.01912438
H        8.61000000      18.04500000       8.99300000      -2.09586680       0.90550301       0.38315611
C       11.10500000       5.18900000       3.38300000       1.02498527       0.72995373      -2.39707310
S        9.83700000       5.24600000       2.11600000       0.92248721       0.66753454       1.43117693
C        9.88200000       3.65700000       1.40500000      -0.16178771      -0.78908345       0.62037845
O        8.56400000       5.44600000       2.78900000      -1.19450686      -0.36179693       0.77238002
O       10.13000000       6.25100000       1.12600000       0.69779540       0.59684205      -1.03183418
H       12.05900000       4.94500000       2.81900000      -0.76710926      -0.16681936       0.96179475
H       10.73600000       4.50200000       4.10100000       0.14725172      -0.90500679       1.00899609
H       11.21300000       6.20600000       3.74800000      -0.13271573       0.28859813       0.37235799
H        9.76800000       3.88000000       0.36800000      -0.22471546      -0.51617111      -1.17337753
H        9.07100000       3.12100000       1.86900000      -1.06407067      -0.23676263      -0.25097620
H       10.70400000       2.98900000       1.65000000       0.92198841       0.42930793      -0.16238935
C        3.84700000      10.98100000       2.16300000       2.04132084       0.44071026       1.99025873
S        3.19900000      10.78400000       3.93100000      -1.24609553      -0.42481107      -3.59482881
C        1.41500000      10.89700000       3.58500000       0.17166537      -1.48443939       2.29313110
O        3.48200000       9.44300000       4.38900000       0.62760273      -0.40545889       0.90677211
O        3.56800000      11.98400000       4.69000000       0.41531444       0.66231777       0.80344615
H        4.45000000      10.06800000       1.89000000      -0.45132223       0.78115674       0.36613540
H        4.49700000      11.92000000       2.28300000      -0.99887366      -1.17012457      -0.81131321
H        2.97400000      11.03400000       1.53700000      -0.25541649       0.51543012      -0.43221688
H        1.00800000       9.93600000       4.08200000       0.29357270       1.60017812      -0.54614401
H        1.17400000      10.80100000       2.53600000       0.00635217       0.40647910      -0.26588963
H        1.16400000      11.80700000       4.12000000      -0.69476407       0.31903331      -0.37088578
C        2.94800000      11.27200000       7.77100000       1.58120955       0.66811510       0.21836535
S        3.29900000      10.53600000       9.36300000       0.46183239      -0.27697674      -1.15753696
C        4.85000000       9.78200000       8.92900000       0.77145648      -0.15616265      -1.38061772
O        3.41000000      11.59700000      10.33200000       0.94914595       2.09667309       1.22991918
O        2.37300000       9.52300000       9.79500000      -0.85098379      -1.29848948      -0.29629910
H        3.01000000      12.38600000       7.86600000      -0.44398430      -0.81085041      -0.03954151
H        2.01700000      10.83600000       7.52000000      -1.28526784      -0.13174642      -0.93244149
H        3.78800000      10.96900000       7.09500000      -0.93941690       0.07159340       0.17026052
H        5.46100000      10.50200000       8.34200000      -0.31728084      -0.01982064       0.32251047
H        4.76500000       8.87600000       8.24800000      -0.39278026       0.78795782       0.92028480
H        5.39600000       9.58400000       9.82200000       0.46103946      -0.53528932       1.03049258
C       13.13000000       7.61900000       8.20100000      -0.38938486       0.55467133      -1.57442389
S       13.53700000       8.95500000       9.27700000       0.95148308      -1.33892574      -2.29473959
C       14.52500000      10.04500000       8.20800000       2.50266934      -0.39539970       0.92023955
O       12.33700000       9.70500000       9.54800000      -1.83678237       1.47178905       0.68868701
O       14.17000000       8.31500000      10.38700000       1.51053712      -0.14077717       1.85402881
H       13.73900000       6.75700000       8.46200000       0.35545813      -0.01860553      -0.24224885
H       13.31600000       7.99500000       7.13600000      -0.47962596      -0.86180094       1.25373274
H       12.07700000       7.35200000       8.40000000       0.14323925       0.15992931      -0.30221315
H       15.07300000      10.76700000       8.85800000      -0.50762888      -0.23107997      -0.09458832
H       13.76800000      10.55100000       7.68000000      -0.96769543       0.88129299      -0.94458276
H       15.34100000       9.60600000       7.51800000      -1.41002394      -0.15669795       1.10294164
C        7.34600000       2.06600000      16.66900000      -1.12662150       2.41628181      -1.86417439
S        8.52900000       3.04000000      15.72500000      -2.79428595       1.17361202      -1.48477672
C        8.73500000       1.97100000      14.30800000       0.81485928      -0.39367501      -2.34630923
O        7.84600000       4.33500000      15.38900000       0.75055598      -1.50385585      -0.18278745
O        9.80400000       3.13300000      16.35900000       2.08453903       0.02852279       1.52022246
H        6.93800000       2.74800000      17.41100000      -0.06731251      -0.28900539       0.49444066
H        7.88700000       1.24200000      16.90500000       1.70126671      -2.76479950       1.83147407
H        6.57500000       1.69700000      15.97700000      -0.19903580       0.46887978       0.00283284
H        9.64700000       2.23800000      13.65700000      -1.06785534       0.23994874       1.15034353
H        7.84900000       2.09900000      13.63200000       0.41766083      -0.31472105       0.58415931
H        8.93600000       0.88400000      14.54100000      -0.54072207       0.87669586       0.36081168
C       16.63200000       3.37200000       9.80200000      -0.46094587      -0.16069036       0.80954224
S       16.49100000       4.56600000      11.17500000       0.12697703       2.02473311      -2.49185580
C       14.70800000       5.04700000      11.30900000      -0.21334913      -0.68911741       1.16174380
O       16.93800000       3.90300000      12.37800000       0.57379211      -0.61221057       1.28375706
O       17.22400000       5.76900000      10.74700000      -0.50843466      -0.57590710       0.30596490
H       17.68600000       2.97500000       9.77100000      -0.79554721       0.45994828       0.09671462
H       16.29400000       3.87500000       8.88400000       0.18795691      -0.06358133       0.08391824
H       15.90900000       2.59600000      10.11100000       0.31333574      -0.22067780      -0.36072683
H       14.22200000       4.83600000      12.32200000       1.06279232       0.27291182      -1.01302141
H       14.17100000       4.40800000      10.62000000      -0.30232628      -0.09233192      -0.63027668
H       14.60200000       6.11000000      11.05500000       0.16224742      -0.09859462      -0.13231566
C       17.35100000      17.24100000      10.90400000       0.29950783      -1.61672471      -0.00152878
S        0.44300000      17.73400000      10.29600000      -0.37995920       0.86987523      -2.45145348
C        0.54500000      16.68600000       8.75300000      -1.92551371       0.86920726       1.03570729
O        0.43800000       0.66300000       9.91000000      -0.02785019      -1.35762280       0.64385519
O        1.47800000      17.24400000      11.21100000       0.31790408      -0.28279823       0.83378157
H       17.23500000      17.56500000      11.94500000      -0.26680134       0.42256701      -0.27037929
H       17.52600000      16.12800000      10.95200000      -0.58227058       0.67291586      -0.02825694
H       16.53200000      17.45000000      10.17300000       0.55064601       0.17763239       0.73426393
H       18.35300000      17.15500000       8.01800000       1.06467951      -0.25239031       0.35247359
H        0.15600000      15.68100000       8.96500000       0.07585115       0.16575698       0.23354515
H        1.57100000      16.62500000       8.50300000       1.27827444       0.27662038      -0.65239280
C       11.73600000      15.57500000       6.96900000       0.61917723       0.29315721      -0.44025620
S       10.33400000      16.36000000       6.16800000      -2.95377560       0.77504420      -0.17408118
C        9.77400000      15.33600000       4.72600000       0.22027877       1.50638787      -0.40761347
O        9.12800000      16.51900000       7.11100000       2.75347019      -0.82253659      -1.40890963
O       10.75500000      17.58300000       5.48500000       0.64922211       0.67396744       0.44149856
H       11.87100000      15.82500000       8.01600000      -0.58940128       0.18707297       0.38109203
H       12.69100000      15.80700000       6.48300000      -0.29522489       0.44129544      -0.51595103
H       11.62800000      14.52700000       6.82400000      -0.36893174      -1.15300000       0.19818785
H        9.58400000      14.35500000       5.05400000      -0.73586418      -1.45834012       0.39252470
H       10.44200000      15.30800000       3.84400000       0.60647392       0.16616578       0.68857542
H        8.89500000      15.90600000       4.33200000       0.18479754      -0.46042856       0.75678062
C        3.85800000       4.19400000      13.53800000      -1.46735543      -0.59629595       1.14412198
S        2.23700000       3.58700000      14.22100000       2.80553709      -0.93685402       1.02793998
C        1.71200000       2.50700000      12.99200000      -0.36326503       0.11362940      -2.01775822
O        2.45900000       2.83000000      15.47100000       0.15047742      -0.02557271      -0.05991288
O        1.30600000       4.66100000      14.32200000      -1.55622665       2.00128413       0.02172891
H        4.62100000       3.47300000      13.74400000       0.47531525      -0.81744067       0.01227959
H        4.14100000       5.13400000      13.97000000      -0.16032784       0.86835983       0.52991418
H        3.64200000       4.32500000      12.51200000       0.00232068       0.09553654      -1.26655997
H        1.33300000       3.07800000      12.12800000       0.32106499       0.45664441       0.04565303
H        0.82100000       1.96900000      13.27000000      -0.08213338      -0.76985366       0.71626055
H        2.55200000       1.94400000      12.59300000       0.03813923      -0.69235392       0.24893011
C        8.66400000       6.16900000      12.26300000      -0.87958526      -0.82961381      -0.58665894
S        9.37800000       6.44800000      10.68500000      -1.87089731       2.23141537      -1.08863088
C        7.89100000       6.62400000       9.57800000       0.10143877       0.98387487       1.38160708
O       10.05100000       7.82200000      10.73800000      -0.66348351      -2.89255146       0.11601898
O       10.05800000       5.23000000      10.26900000       0.59821759       0.31831648      -0.01685872
H        7.91700000       5.34100000      12.23900000       0.43940260       0.44617848      -0.16057672
H        8.25600000       7.06700000      12.66500000      -0.47192500       0.92504031       0.27450179
H        9.51100000       5.87000000      12.80200000       1.37841480      -0.66833775       1.50608345
H        7.24200000       5.77500000       9.72800000       0.03083524      -0.83432253      -0.09360359
H        8.37400000       6.66000000       8.63500000       0.22910382      -0.06318435      -1.47251050
H        7.23300000       7.52500000       9.70800000       1.00386623      -0.29012588       0.26312826
C       13.94000000      14.71500000      11.56900000      -1.30016327       0.10163109      -1.00841143
S       14.54700000      13.87000000      13.03000000      -0.17952267      -3.70604445       1.66527897
C       16.39400000      14.13000000      13.22100000      -1.44934537       0.44824925      -3.10353569
O       13.93900000      14.34500000      14.27100000      -0.19823927       1.16144556      -0.43971987
O       14.33300000      12.38500000      12.85100000       0.23582314       1.15364123      -0.65526164
H       14.24500000      15.71200000      11.80700000       0.61752555       1.28930241      -0.51813904
H       12.80400000      14.83600000      11.49300000       1.09463081      -0.74653632       0.86088357
H       14.22600000      14.32700000      10.54700000       0.48898067       0.20800381       1.19465753
H       16.49500000      15.18200000      13.50600000       0.33943038      -0.01845384      -0.36094383
H       16.79100000      13.78600000      12.20300000      -0.05067696       0.80158261       1.29854347
H       16.72500000      13.48900000      13.99700000       0.04376275      -0.95862304       0.99720810
C        0.25000000       7.73400000       8.87500000      -1.13735689      -0.25554711      -1.55709157
S       18.03200000       7.75500000       7.10600000       1.08358329       1.04280508       0.25359410
C       18.37400000       6.08300000       6.54200000      -0.08670532       1.39293793      -0.55770986
O       16.56000000       7.82700000       7.22000000       0.07683691       0.27667592       0.04875378
O        0.23400000       8.74000000       6.20200000      -0.98064762      -1.39622689       1.59500198
H        1.26100000       8.11000000       8.76100000       0.11407420       0.47028875       0.22578967
H        0.33400000       6.64000000       9.09400000      -0.55665416       0.81984002       0.36396334
H       18.03800000       8.37200000       9.47900000       1.08040952      -0.97622275      -0.46826786
H       18.06000000       6.23600000       5.48200000       0.26789303      -0.82299991       0.38589433
H       17.70100000       5.46200000       7.13600000       0.13136384      -0.33181272      -0.18067452
H        0.94300000       5.92600000       6.69000000      -0.37679931      -0.28241411      -0.18628364
C       13.40900000      17.16800000       1.84300000      -0.98406051      -0.58081842      -1.76697537
S       13.09000000       0.36700000       1.99300000      -0.24137159      -2.20724237      -0.02676621
C       12.93200000       0.73700000       0.27000000      -1.23516629       2.77079172       0.44327159
O       11.87800000       0.49000000       2.77800000      -1.73091359       0.68689701      -0.18858992
O       14.22800000       0.98500000       2.62000000       1.93493218       1.28625411       0.24877533
H       14.42400000      16.95100000       1.62800000       1.48575271      -0.02742647       0.66586229
H       12.99700000      16.74400000       0.88700000      -0.58926398       0.44002840       0.79835794
H       12.96000000      16.67900000       2.68000000       0.04594099      -0.65278823       0.79424931
H       13.07000000       1.85200000       0.18900000      -0.15102764      -1.07969064      -0.22001189
H       11.91400000       0.48100000      18.45000000       0.17247527      -0.24439829       0.08690329
H       13.68300000       0.22000000      18.23100000       0.83179154      -0.54939080      -0.54871460
C        7.31700000       8.43500000       1.31800000      -0.36520775      -2.29681549       0.74684537
S        5.89900000       7.37100000       1.87400000      -1.10891020       1.55622974      -0.33009059
C        6.02900000       7.08200000       3.65900000      -1.54671408      -0.42314191       0.41994397
O        4.68400000       8.16100000       1.49500000       1.03432043      -0.85743675       0.76581240
O        6.01300000       6.04500000       1.27700000       0.25787190      -0.57557337      -0.59656386
H        7.65800000       9.16800000       2.00900000       0.35087128       0.24983514       1.16577889
H        6.94000000       8.99400000       0.52000000      -0.87464000       0.67957862      -1.73978646
H        8.05100000       7.69500000       1.00100000       0.49724522       0.22222715       0.06569478
H        5.93800000       6.00800000       3.84700000       0.20205427      -0.29004103      -0.59907840
H        5.14800000       7.45700000       4.22600000       0.44615226       0.66490430      -0.47859032
H        6.96300000       7.39500000       4.07000000       0.77500563       0.66496498       0.22264007
C       11.69200000       5.78800000      17.14200000       2.54571836      -0.14144668      -0.89742872