Created from lammps.lmp
458          atoms
7            atom types
  0.000000000000  17.924000000000 xlo xhi
  0.000000000000  17.924000000000 ylo yhi
  0.000000000000  17.924000000000 zlo zhi
  0.000000000000   0.000000000000   0.000000000000 xy xz yz

Masses

1             15.999000000000 # 8
2              1.008000000000 # 1
3             12.011000000000 # 6
4             32.065000000000 # 16
5             14.007000000000 # 7
6             18.998000000000 # 9
7              6.941000000000 # 3

Atoms # atomic

1            1              0.406000000000   3.039000000000   2.157000000000
2            1             13.834000000000  11.771000000000  15.580000000000
3            1              3.911000000000   3.005000000000   8.088000000000
4            1              5.054000000000  14.635000000000   2.044000000000
5            1             16.362000000000   0.132000000000   2.254000000000
6            1             12.127000000000  15.930000000000  15.821000000000
7            1             15.684000000000   2.934000000000   0.542000000000
8            1             11.128000000000   3.355000000000  11.521000000000
9            1              5.396000000000  13.931000000000   4.839000000000
10           1              3.357000000000   5.669000000000   8.853000000000
11           1              5.323000000000   8.790000000000   1.588000000000
12           1             11.721000000000  14.571000000000  13.582000000000
13           1             11.534000000000  11.803000000000  14.082000000000
14           1             14.415000000000  14.423000000000  14.365000000000
15           1             12.953000000000   6.436000000000   5.403000000000
16           1             14.254000000000  14.435000000000  17.200000000000
17           1             16.918000000000  12.504000000000  15.838000000000
18           1             17.627000000000  15.733000000000   7.913000000000
19           1             14.122000000000   3.168000000000  10.055000000000
20           1              3.131000000000   8.140000000000   8.120000000000
21           1             15.661000000000  17.355000000000   6.656000000000
22           1             14.755000000000   8.791000000000   5.644000000000
23           1              5.489000000000  11.598000000000   1.327000000000
24           1              0.687000000000   0.437000000000   0.334000000000
25           1              9.711000000000   8.160000000000  12.248000000000
26           1             10.956000000000   6.113000000000  11.669000000000
27           1              9.444000000000  15.914000000000  13.107000000000
28           1              7.128000000000  16.770000000000  13.534000000000
29           1              9.480000000000  16.843000000000   6.267000000000
30           1              7.451000000000  16.039000000000   5.231000000000
31           1             12.720000000000   0.845000000000   9.218000000000
32           1             13.580000000000  16.436000000000   8.710000000000
33           1              8.568000000000  10.530000000000  11.187000000000
34           1             10.842000000000  11.559000000000  11.316000000000
35           1             15.456000000000   4.416000000000   6.169000000000
36           1             15.320000000000   2.033000000000   6.783000000000
37           1              3.838000000000  11.690000000000   3.425000000000
38           1              2.803000000000   9.644000000000   4.214000000000
39           1             16.513000000000  10.301000000000   6.853000000000
40           1              1.041000000000  10.068000000000   6.573000000000
41           1             13.688000000000   6.104000000000  10.207000000000
42           1             14.527000000000   6.715000000000   8.002000000000
43           1              3.961000000000   6.965000000000  17.756000000000
44           1              1.997000000000   6.337000000000  16.334000000000
45           1              5.873000000000   8.841000000000  11.380000000000
46           1              3.502000000000   9.144000000000  10.764000000000
47           1             16.698000000000   2.448000000000  10.069000000000
48           1             15.937000000000   0.344000000000   9.300000000000
49           1             13.414000000000   0.341000000000   2.841000000000
50           1             11.649000000000   1.946000000000   2.062000000000
51           1              5.896000000000   6.949000000000   3.918000000000
52           1              4.224000000000   7.488000000000   5.553000000000
53           1              7.297000000000   6.445000000000  12.481000000000
54           1              8.713000000000   4.314000000000  12.184000000000
55           1             15.597000000000  17.336000000000  14.674000000000
56           1             16.678000000000  15.399000000000  15.893000000000
57           1              1.879000000000   4.864000000000  11.053000000000
58           1              3.509000000000   5.539000000000  12.701000000000
59           1             12.260000000000   7.215000000000   2.905000000000
60           1             14.132000000000   7.399000000000   1.384000000000
61           1              5.757000000000  12.311000000000   6.760000000000
62           1              4.111000000000  10.506000000000   6.649000000000
63           1              6.766000000000   4.863000000000   2.160000000000
64           1              8.913000000000   5.358000000000   0.860000000000
65           1             14.681000000000   9.058000000000  15.179000000000
66           1             15.759000000000   7.418000000000  13.778000000000
67           1              7.489000000000  12.355000000000   3.281000000000
68           1              8.756000000000  12.578000000000   5.393000000000
69           1             13.321000000000   4.622000000000  12.551000000000
70           1             13.390000000000   5.362000000000  14.949000000000
71           1             13.696000000000   2.838000000000  16.754000000000
72           1             12.648000000000   0.712000000000  15.860000000000
73           1              3.009000000000   1.155000000000  15.499000000000
74           1              3.251000000000   1.670000000000   0.067000000000
75           1              5.005000000000  15.121000000000  17.370000000000
76           1              3.950000000000  15.907000000000  15.138000000000
77           1              0.790000000000  16.580000000000   2.797000000000
78           1              3.192000000000  16.544000000000   2.392000000000
79           1              2.482000000000   1.557000000000   5.979000000000
80           1              3.003000000000   2.873000000000   3.795000000000
81           1              7.686000000000   7.815000000000   7.368000000000
82           1              8.287000000000   7.990000000000   9.818000000000
83           1             11.399000000000   4.860000000000   8.691000000000
84           1             10.612000000000   5.414000000000   6.262000000000
85           1              7.362000000000   9.146000000000  13.872000000000
86           1              9.373000000000  10.211000000000  14.839000000000
87           1              5.594000000000  12.348000000000  16.659000000000
88           1              6.500000000000  14.030000000000  15.003000000000
89           1             16.719000000000   5.442000000000   1.664000000000
90           1             15.608000000000   6.154000000000   3.756000000000
91           1             17.001000000000   7.001000000000   6.077000000000
92           1              1.469000000000   7.476000000000   5.627000000000
93           1              6.348000000000  14.156000000000  10.079000000000
94           1              5.309000000000  15.214000000000  11.980000000000
95           1              4.111000000000   0.592000000000   9.028000000000
96           1              6.069000000000   1.189000000000  10.321000000000
97           1             17.494000000000  12.225000000000  13.229000000000
98           1              1.136000000000  11.196000000000  11.704000000000
99           1             15.610000000000  14.204000000000   9.301000000000
100          1             15.739000000000  14.763000000000  11.819000000000
101          1             14.008000000000  15.116000000000   2.019000000000
102          1             15.170000000000  16.182000000000   4.101000000000
103          1             11.877000000000  14.221000000000   6.413000000000
104          1             14.437000000000  14.629000000000   6.741000000000
105          2              1.251000000000   2.646000000000   2.545000000000
106          2              0.175000000000   3.806000000000   2.746000000000
107          2             12.897000000000  11.777000000000  15.178000000000
108          2             14.248000000000  10.842000000000  15.590000000000
109          2              3.288000000000   2.659000000000   7.347000000000
110          2              4.228000000000   2.110000000000   8.505000000000
111          2              4.421000000000  15.389000000000   2.332000000000
112          2              5.287000000000  14.837000000000   1.070000000000
113          2             17.063000000000  17.358000000000   2.508000000000
114          2             15.679000000000   0.115000000000   3.012000000000
115          2             11.898000000000  15.539000000000  14.905000000000
116          2             12.277000000000  16.928000000000  15.673000000000
117          2             14.801000000000   2.824000000000   0.048000000000
118          2             16.030000000000   3.858000000000   0.646000000000
119          2             10.256000000000   3.883000000000  11.630000000000
120          2             11.328000000000   2.978000000000  12.418000000000
121          2              6.048000000000  14.686000000000   5.019000000000
122          2              5.261000000000  13.469000000000   5.741000000000
123          2              2.698000000000   5.294000000000   9.514000000000
124          2              3.835000000000   4.819000000000   8.573000000000
125          2              4.893000000000   7.984000000000   1.081000000000
126          2              5.857000000000   8.487000000000   2.416000000000
127          2             10.792000000000  14.889000000000  13.357000000000
128          2             11.655000000000  13.553000000000  13.616000000000
129          2             11.622000000000  11.478000000000  13.116000000000
130          2             10.845000000000  11.165000000000  14.487000000000
131          2             14.775000000000  14.965000000000  13.584000000000
132          2             13.403000000000  14.313000000000  14.328000000000
133          2             12.711000000000   6.901000000000   4.535000000000
134          2             12.044000000000   6.214000000000   5.832000000000
135          2             13.553000000000  14.710000000000  16.515000000000
136          2             14.014000000000  14.819000000000   0.191000000000
137          2             17.290000000000  12.227000000000  14.934000000000
138          2             17.579000000000  13.219000000000  16.057000000000
139          2              0.365000000000  15.238000000000   8.485000000000
140          2              0.090000000000  16.192000000000   7.110000000000
141          2             15.123000000000   2.989000000000  10.120000000000
142          2             13.630000000000   2.305000000000   9.842000000000
143          2              3.196000000000   7.122000000000   8.332000000000
144          2              2.935000000000   8.488000000000   9.050000000000
145          2             15.492000000000  17.182000000000   5.661000000000
146          2             15.626000000000   0.415000000000   6.912000000000
147          2             14.185000000000   9.618000000000   5.483000000000
148          2             15.668000000000   9.191000000000   5.813000000000
149          2              5.530000000000  10.568000000000   1.287000000000
150          2              5.572000000000  11.916000000000   0.345000000000
151          2              1.682000000000   0.608000000000   0.516000000000
152          2              0.739000000000  17.373000000000   0.487000000000
153          2             12.268000000000   8.749000000000  13.704000000000
154          2             12.707000000000   8.289000000000  12.035000000000
155          2             12.988000000000   7.242000000000  13.360000000000
156          2             10.304000000000   7.213000000000  14.903000000000
157          2             11.171000000000   5.731000000000  14.429000000000
158          2              9.471000000000   5.725000000000  14.205000000000
159          2             10.103000000000  17.805000000000  14.999000000000
160          2              9.059000000000  16.768000000000  15.895000000000
161          2              8.556000000000   0.351000000000  15.515000000000
162          2              9.943000000000   0.757000000000  12.352000000000
163          2              8.170000000000   1.236000000000  12.760000000000
164          2              8.606000000000   0.102000000000  11.502000000000
165          2              8.273000000000  15.715000000000   8.679000000000
166          2              8.626000000000  14.612000000000   7.339000000000
167          2              6.897000000000  15.106000000000   7.870000000000
168          2              7.601000000000   0.403000000000   7.880000000000
169          2              6.229000000000  17.700000000000   7.158000000000
170          2              7.356000000000   0.771000000000   6.230000000000
171          2             10.108000000000  17.307000000000   9.140000000000
172          2             11.204000000000  16.596000000000  10.318000000000
173          2             10.938000000000  15.783000000000   8.780000000000
174          2             11.571000000000   0.528000000000   6.957000000000
175          2             11.943000000000  16.716000000000   6.487000000000
176          2             13.216000000000   0.099000000000   6.511000000000
177          2              8.147000000000  12.709000000000   9.443000000000
178          2              9.578000000000  11.703000000000   8.744000000000
179          2              9.599000000000  13.333000000000   9.387000000000
180          2              7.759000000000  13.060000000000  12.027000000000
181          2              9.277000000000  13.878000000000  12.009000000000
182          2              9.089000000000  12.620000000000  13.240000000000
183          2             13.172000000000   3.939000000000   4.659000000000
184          2             12.792000000000   3.501000000000   6.372000000000
185          2             12.984000000000   2.197000000000   5.015000000000
186          2             15.409000000000   3.313000000000   3.606000000000
187          2             15.336000000000   1.604000000000   4.019000000000
188          2             16.762000000000   2.544000000000   4.484000000000
189          2              1.405000000000  12.756000000000   3.228000000000
190          2              1.320000000000  12.300000000000   4.818000000000
191          2              0.332000000000  11.384000000000   3.523000000000
192          2              2.306000000000  11.522000000000   1.204000000000
193          2              1.289000000000  10.089000000000   1.730000000000
194          2              2.936000000000   9.922000000000   1.228000000000
195          2             17.533000000000  12.897000000000   8.127000000000
196          2             17.753000000000  12.767000000000   6.415000000000
197          2              1.236000000000  12.603000000000   7.274000000000
198          2             17.129000000000  10.588000000000   9.460000000000
199          2              1.107000000000  10.681000000000   9.373000000000
200          2              0.281000000000   9.199000000000   8.979000000000
201          2             15.205000000000   8.349000000000  11.115000000000
202          2             14.045000000000   8.848000000000   9.789000000000
203          2             15.721000000000   8.838000000000   9.449000000000
204          2             16.413000000000   5.904000000000  10.906000000000
205          2             17.099000000000   6.558000000000   9.360000000000
206          2             16.250000000000   4.979000000000   9.500000000000
207          2              4.981000000000   4.695000000000  17.169000000000
208          2              4.490000000000   5.335000000000  15.481000000000
209          2              3.519000000000   3.942000000000  16.218000000000
210          2              3.071000000000   4.121000000000   0.786000000000
211          2              1.422000000000   4.551000000000   0.244000000000
212          2              2.218000000000   5.656000000000   1.314000000000
213          2              4.793000000000   9.335000000000  13.944000000000
214          2              3.805000000000   8.091000000000  13.405000000000
215          2              3.155000000000   9.758000000000  13.310000000000
216          2              5.631000000000  11.384000000000  12.383000000000
217          2              4.003000000000  11.629000000000  11.889000000000
218          2              5.304000000000  11.707000000000  10.723000000000
219          2              1.418000000000   1.541000000000   9.314000000000
220          2              0.271000000000   1.583000000000   7.971000000000
221          2              0.704000000000  17.884000000000   8.716000000000
222          2              0.307000000000   1.003000000000  11.829000000000
223          2             17.903000000000  17.320000000000  11.252000000000
224          2             16.605000000000   0.406000000000  11.989000000000
225          2             11.876000000000  16.524000000000   1.359000000000
226          2             12.774000000000  17.742000000000   0.439000000000
227          2             10.981000000000  17.779000000000   0.539000000000
228          2             11.394000000000  17.165000000000   4.148000000000
229          2             10.109000000000  17.786000000000   3.087000000000
230          2             10.807000000000   0.731000000000   4.519000000000
231          2              4.076000000000   5.269000000000   2.790000000000
232          2              3.314000000000   6.957000000000   2.954000000000
233          2              2.810000000000   5.470000000000   3.994000000000
234          2              5.787000000000   4.436000000000   4.821000000000
235          2              4.399000000000   4.689000000000   5.955000000000
236          2              5.945000000000   5.333000000000   6.338000000000
237          2              5.651000000000   4.628000000000  13.725000000000
238          2              7.158000000000   4.526000000000  14.532000000000
239          2              6.386000000000   3.164000000000  13.546000000000
240          2              5.401000000000   4.954000000000  11.090000000000
241          2              6.473000000000   3.454000000000  10.835000000000
242          2              6.843000000000   5.085000000000  10.053000000000
243          2              1.011000000000  17.125000000000  15.742000000000
244          2              0.310000000000   0.650000000000  15.360000000000
245          2              0.327000000000  17.355000000000  14.104000000000
246          2             16.223000000000   0.763000000000  17.125000000000
247          2             16.646000000000  16.951000000000  17.884000000000
248          2             15.068000000000  17.268000000000  17.547000000000
249          2              0.087000000000   6.452000000000  12.845000000000
250          2              1.410000000000   7.420000000000  12.108000000000
251          2              1.556000000000   7.051000000000  13.871000000000
252          2              0.541000000000   3.850000000000  13.482000000000
253          2              1.569000000000   4.289000000000  14.639000000000
254          2              1.959000000000   3.107000000000  13.336000000000
255          2             11.800000000000   4.751000000000   1.402000000000
256          2             13.452000000000   4.789000000000   1.918000000000
257          2             13.069000000000   5.067000000000   0.198000000000
258          2             10.637000000000   7.177000000000   0.472000000000
259          2             12.017000000000   7.520000000000  17.403000000000
260          2             11.434000000000   8.733000000000   0.592000000000
261          2              7.524000000000  10.365000000000   5.737000000000
262          2              6.146000000000  10.527000000000   4.649000000000
263          2              6.331000000000   9.065000000000   5.596000000000
264          2              7.010000000000  10.511000000000   8.562000000000
265          2              5.852000000000   9.117000000000   8.437000000000
266          2              5.405000000000  10.730000000000   9.046000000000
267          2              8.460000000000   4.821000000000   4.270000000000
268          2              9.022000000000   6.345000000000   3.503000000000
269          2             10.062000000000   5.000000000000   3.380000000000
270          2              8.125000000000   2.592000000000   2.794000000000
271          2              9.697000000000   3.027000000000   2.016000000000
272          2              8.318000000000   2.712000000000   1.000000000000
273          2             17.374000000000   9.450000000000  16.117000000000
274          2             17.237000000000  10.048000000000  14.431000000000
275          2              0.054000000000   8.372000000000  14.796000000000
276          2             15.826000000000   7.592000000000  17.281000000000
277          2             16.991000000000   6.578000000000  16.153000000000
278          2             15.259000000000   6.269000000000  16.305000000000
279          2              9.901000000000  11.030000000000   2.489000000000
280          2              9.309000000000  10.199000000000   4.054000000000
281          2             10.672000000000  11.190000000000   4.084000000000
282          2              9.691000000000  13.919000000000   2.230000000000
283          2             10.627000000000  14.046000000000   3.594000000000
284          2              8.995000000000  14.786000000000   3.563000000000
285          3             12.282000000000   7.953000000000  12.981000000000
286          3             10.359000000000   6.375000000000  14.158000000000
287          3              9.067000000000  17.456000000000  15.091000000000
288          3              8.915000000000   0.425000000000  12.493000000000
289          3              7.924000000000  15.414000000000   7.694000000000
290          3              7.237000000000   0.002000000000   6.938000000000
291          3             10.992000000000  16.741000000000   9.267000000000
292          3             12.282000000000  17.676000000000   6.976000000000
293          3              9.159000000000  12.362000000000   9.514000000000
294          3              8.823000000000  12.918000000000  12.182000000000
295          3             13.287000000000   3.157000000000   5.462000000000
296          3             15.682000000000   2.566000000000   4.337000000000
297          3              1.283000000000  11.859000000000   3.835000000000
298          3              2.236000000000  10.564000000000   1.772000000000
299          3              0.180000000000  12.384000000000   7.366000000000
300          3              0.114000000000  10.261000000000   8.966000000000
301          3             14.969000000000   8.342000000000  10.027000000000
302          3             16.271000000000   5.995000000000   9.821000000000
303          3              4.153000000000   4.858000000000  16.396000000000
304          3              2.404000000000   4.980000000000   0.511000000000
305          3              4.038000000000   9.094000000000  13.202000000000
306          3              4.919000000000  11.156000000000  11.626000000000
307          3              0.541000000000   1.032000000000   8.864000000000
308          3             17.482000000000   0.367000000000  11.352000000000
309          3             11.869000000000  17.590000000000   1.064000000000
310          3             10.982000000000   0.121000000000   3.647000000000
311          3              3.602000000000   5.994000000000   3.463000000000
312          3              5.322000000000   5.077000000000   5.506000000000
313          3              6.586000000000   4.218000000000  13.634000000000
314          3              6.428000000000   4.571000000000  10.895000000000
315          3              0.205000000000  17.531000000000  15.185000000000
316          3             16.052000000000  17.559000000000  17.156000000000
317          3              1.195000000000   6.701000000000  12.903000000000
318          3              1.564000000000   4.047000000000  13.580000000000
319          3             12.737000000000   5.264000000000   1.244000000000
320          3             11.591000000000   7.634000000000   0.454000000000
321          3              6.490000000000  10.108000000000   5.595000000000
322          3              6.010000000000  10.227000000000   8.312000000000
323          3              9.004000000000   5.257000000000   3.436000000000
324          3              8.611000000000   3.038000000000   1.969000000000
325          3             17.252000000000   9.140000000000  15.057000000000
326          3             15.980000000000   7.033000000000  16.303000000000
327          3              9.718000000000  11.102000000000   3.581000000000
328          3              9.588000000000  13.951000000000   3.287000000000
329          3             15.672000000000   3.708000000000  13.791000000000
330          3             11.144000000000   2.975000000000  16.226000000000
331          3              5.701000000000   0.643000000000  16.385000000000
332          3              2.335000000000  14.394000000000  17.144000000000
333          3              1.830000000000  16.400000000000   5.249000000000
334          3              4.803000000000   0.927000000000   4.394000000000
335          3             10.373000000000   8.251000000000   7.676000000000
336          3              9.477000000000   3.163000000000   7.314000000000
337          3              6.983000000000   9.448000000000  16.566000000000
338          3              8.296000000000  13.172000000000  16.855000000000
339          3             17.453000000000   7.970000000000   2.274000000000
340          3              0.823000000000   4.922000000000   6.697000000000
341          3              3.763000000000  14.589000000000   9.132000000000
342          3              4.002000000000   0.296000000000  11.726000000000
343          3              1.536000000000  14.088000000000  12.612000000000
344          3             14.803000000000  12.193000000000  11.006000000000
345          3             16.056000000000  13.687000000000   3.314000000000
346          3             13.499000000000  12.090000000000   5.890000000000
347          4             10.702000000000   7.168000000000  12.624000000000
348          4              8.570000000000  16.986000000000  13.519000000000
349          4              8.103000000000  16.557000000000   6.401000000000
350          4             12.513000000000  17.425000000000   8.672000000000
351          4              9.415000000000  11.691000000000  11.102000000000
352          4             15.015000000000   3.086000000000   5.887000000000
353          4              2.688000000000  10.867000000000   3.463000000000
354          4             17.842000000000  10.634000000000   7.266000000000
355          4             14.747000000000   6.706000000000   9.417000000000
356          4              3.109000000000   5.959000000000  17.169000000000
357          4              4.598000000000   9.452000000000  11.575000000000
358          4             17.009000000000   1.123000000000   9.836000000000
359          4             12.085000000000   0.649000000000   2.427000000000
360          4              4.772000000000   6.506000000000   4.657000000000
361          4              7.423000000000   4.985000000000  12.296000000000
362          4             16.590000000000  16.832000000000  15.630000000000
363          4              2.143000000000   5.261000000000  12.420000000000
364          4             12.783000000000   7.004000000000   1.606000000000
365          4              5.493000000000  10.910000000000   6.763000000000
366          4              8.218000000000   4.762000000000   1.976000000000
367          4             15.780000000000   8.155000000000  14.995000000000
368          4              8.735000000000  12.570000000000   3.964000000000
369          4             13.755000000000   4.208000000000  13.962000000000
370          4             12.938000000000   2.187000000000  15.695000000000
371          4              3.689000000000   0.755000000000  16.810000000000
372          4              3.829000000000  15.736000000000  16.735000000000
373          4              2.144000000000  16.923000000000   3.381000000000
374          4              2.965000000000   1.536000000000   4.503000000000
375          4              8.625000000000   7.415000000000   8.423000000000
376          4             10.233000000000   5.001000000000   7.744000000000
377          4              7.898000000000  10.119000000000  14.944000000000
378          4              6.764000000000  12.730000000000  15.711000000000
379          4             16.833000000000   6.230000000000   2.895000000000
380          4              0.321000000000   6.525000000000   5.433000000000
381          4              5.220000000000  15.085000000000  10.461000000000
382          4              5.063000000000   0.182000000000  10.089000000000