458
Lattice="18.748 0.0 0.0 0.0 18.748 0.0 0.0 0.0 18.748" Properties=species:S:1:pos:R:3:forces:R:3 virial="-11.408637080551184 13.714427202126863 -4.3515840279782 13.714427202126863 -17.891335482209143 13.126726408692305 -4.3515840279782 13.126726408692305 -17.66892554809695" energy=-108879.12674498152 pbc="T T T"
O        0.52100000      18.43700000      17.69700000       1.22726940       0.73379547      -0.42676716
H        1.25300000      18.18900000      17.09900000       0.11729116       0.14017810       0.03003717
H       18.72000000      17.66200000      17.68100000      -1.37425527      -0.88076283      -0.09759240
O       15.39600000      11.89000000       1.93200000       0.68483961      -0.88835273       0.41776985
H       15.76400000      11.45300000       2.75900000      -0.27735469       0.72581528      -1.13151483
H       15.74100000      11.33200000       1.19200000      -0.09497604       0.13326954       0.43781828
O        4.58500000       0.97100000      10.02300000      -0.96880409       1.78836746       0.20918651
H        5.51400000       0.84400000       9.91000000       1.44684471      -0.45554295      -0.25384864
H        4.18700000       0.11500000       9.85100000      -0.13456692      -1.07962122      -0.18561669
O        7.00300000      13.16100000       1.06300000      -1.52341732       1.12446383      -0.99562121
H        6.60200000      12.89700000       0.19800000       0.28003738       0.09974647       0.51497812
H        7.75500000      12.59600000       1.16700000       0.82525425      -1.06343972       0.33789081
O        1.56100000       1.39800000       1.61200000       1.00045232      -1.07474178      -0.43581128
H        0.95800000       2.13300000       1.58800000      -0.65996675       1.02450756       0.55936359
H        2.05600000       1.27300000       2.47600000      -0.68630000       0.44842922      -0.39422985
O       11.95900000      11.29300000      13.34400000      -1.11970729      -0.21405567       1.42440155
H       11.24500000      10.81500000      13.87900000       0.98792487       0.51574534      -0.99478663
H       12.20900000      11.98800000      14.02100000       0.01253927      -0.57280121      -0.51201672
O       18.16000000      17.96300000       1.86600000       2.77005998      -2.04875647      -1.23703342
H       18.32300000      17.92200000       2.81200000      -0.65533157       0.36133310       0.54657338
H       17.53500000      18.59100000       1.59800000      -2.40140078       1.80410107       0.03590957
O       13.03600000       2.19000000      13.51300000       0.81551285      -2.18695790      -1.27156180
H       12.91200000       3.02200000      13.91900000      -0.69821912       1.85348117       1.21347955
H       12.20000000       1.69400000      13.62900000       0.00857669       0.50457955       0.11512732
O        4.78500000      12.59300000       3.24300000      -0.16811674       0.43270847      -0.14414634
H        5.57000000      12.29100000       3.74700000      -0.39146797      -0.18427406      -0.08186805
H        4.40500000      11.82100000       2.75800000       0.52509181      -0.10982519      -0.05760866
O        4.41700000       1.24800000      12.69000000      -0.17388218      -0.54796846       1.74596482
H        4.67100000       1.16100000      11.76400000       0.09769216      -0.23957798      -1.05694100
H        4.54900000       0.34800000      13.07300000       0.01746448       0.70174924      -0.35753455
O        3.87100000      13.20100000      14.02500000       0.42454727      -0.01404388       0.61530566
H        4.14400000      13.21700000      14.97300000      -0.00032344       0.04263352      -0.48120102
H        3.04200000      12.70700000      14.06600000      -0.21535048      -0.06239091      -0.21888934
O       13.14200000      15.23200000      17.49000000      -0.02876808       1.34196272      -0.53109740
H       12.99200000      16.18200000      17.24200000      -0.24431910      -0.94810157      -0.08465821
H       13.89400000      15.36300000      18.10100000       0.05285931      -0.30450400       0.49314585
O       12.82600000      12.76400000      15.48600000       0.57628711       0.29453223       0.38895189
H       13.63600000      13.30700000      15.39900000      -0.19037735      -0.11294240      -0.10173959
H       12.36300000      13.17800000      16.23400000      -0.07388014       0.10061396      -0.02890383
O       15.38000000      13.06300000      17.89300000      -2.14992065      -1.56492007       1.03366069
H       15.75600000      13.53500000      17.16400000       0.45258567       0.56910088      -1.34524397
H       14.50800000      12.66300000      17.57000000       1.45555458       0.61402268       0.18069252
O       14.08500000       5.45400000       5.76800000       0.82773588      -0.84659286      -0.51360155
H       13.16400000       5.76200000       5.67300000      -0.25800148      -0.00343191      -0.25215222
H       14.29400000       4.78200000       5.05700000      -0.72142024       0.72317836       0.70912419
O       15.32600000      15.55900000       0.70400000       0.71789526       1.28914866      -1.16611674
H       15.30600000      16.28200000       1.39900000      -0.11753131      -0.67176915      -0.14878050
H       15.90800000      15.98600000      18.73000000      -0.33540815      -0.76665109       1.00851787
O       17.02200000      16.75600000      17.45500000      -2.17209384       0.90012581      -0.02765993
H       17.56000000      16.14200000      16.95900000       0.14919033      -0.76944485      -0.74553102
H       16.22300000      16.97900000      16.86100000       1.84003584      -0.36644188       0.76246688
O       17.96700000      15.55300000       8.35900000      -0.36245101      -1.52563875       0.66969067
H       18.36700000      16.17200000       7.73300000       0.36553582       0.82668378      -0.51714145
H       18.62900000      14.84900000       8.54600000      -0.27294885       0.75999193      -0.26541963
O       14.76500000       3.43600000      11.87800000       1.20399629      -0.13714985      -0.96919027
H       14.11000000       2.92900000      12.38800000      -0.63667719      -0.53457199       0.40760884
H       15.31100000       2.72200000      11.44300000      -0.53792573       0.64050042       0.52728754
O        2.19900000       7.13700000       6.78200000       0.46557129       0.78491415      -0.81199455
H        1.75900000       7.60300000       7.51600000      -0.23691998       0.14231931       0.48364511
H        2.17300000       6.20400000       6.97700000      -0.20604771      -0.88699570       0.02111647
O        0.03500000      17.88900000       6.84400000      -1.15673427      -0.27633242      -1.44438263
H       18.64600000      17.98800000       5.85000000      -0.03037399      -0.20432507       1.55599371
H        0.97900000      17.97000000       6.95100000       1.14074200       0.13257740       0.07833226
O       15.74100000       8.09400000       4.98500000       2.62393441       1.54764945       1.73509369
H       16.37300000       8.90600000       5.07500000      -1.26120231      -1.84188292      -0.28885472
H       15.16200000       8.34100000       4.28200000      -1.46396518       0.15786780      -1.37380995
O        4.14300000      10.55200000       1.32400000       0.47383738      -0.14770372       0.40891034
H        5.09400000      10.20300000       1.25600000      -1.26348134       0.67428677      -0.45927928
H        3.98500000      11.19800000       0.60300000       0.58423233      -0.37180109       0.02531457
O       15.72000000       1.03000000       0.85400000       0.51394865       0.98745333       0.98314314
H       16.40200000       1.73200000       1.06400000      -0.50308368      -0.53622161      -0.61082114
H       15.09700000       1.19300000       1.60900000       0.24658733      -0.59134966      -0.28371817
C       13.34500000       8.52200000      10.13900000      -1.03749832      -0.19578592      -0.91633661
S       12.99300000       7.64700000      11.66000000      -2.76737215       0.69012477      -0.19012744
C       13.92600000       8.52500000      12.80800000       0.47726518       0.01939897       0.82476728
O       11.55100000       7.87000000      12.01800000       1.69476901      -0.53578863      -0.59104473
O       13.48100000       6.25400000      11.58600000      -0.46402297       0.22497617      -0.26964447
H       13.61000000       9.59000000      10.20700000      -0.37753773      -0.18335258       0.64497465
H       12.43200000       8.42400000       9.48400000       0.90772496      -0.10371677       0.47688517
H       14.20000000       8.01000000       9.73400000       0.46242374      -0.35549669      -0.60905891
H       14.83300000       8.94700000      12.38700000       0.15416850       0.21241530      -0.25664343
H       14.21800000       7.81200000      13.56800000       0.04812334      -0.16825146       0.60062466
H       13.21300000       9.25100000      13.18100000       0.12747222       0.74632703       0.36130842
C        8.84500000      16.29500000      11.58200000      -1.96374037      -0.75463889      -0.32653373
S        7.83900000      17.80100000      12.00600000       0.76185444       0.03268747      -1.90798393
C        9.09400000       0.39800000      11.98900000      -0.62403867      -0.61760217       1.50957038
O        6.95400000      18.11100000      10.84500000       0.50161815      -0.36011131       1.40897288
O        7.32100000      17.60200000      13.36700000      -0.31839824       0.18510607       0.02570126
H        9.90000000      16.48700000      11.62300000       0.63157457       0.41461716       0.03375962
H        8.52600000      16.03800000      10.53100000       0.40203984       0.12517108       0.85433908
H        8.57400000      15.44900000      12.29000000       0.07425192       1.11552925      -0.65114427
H        8.91500000       0.95000000      12.94100000       0.03199790       0.10152464      -0.79406317
H        8.98900000       0.96400000      11.06200000       0.05372835       0.06916217       0.08897869
H       10.07200000      18.67000000      12.09300000       0.14988350       0.11400272      -0.23550690
C        9.18200000      13.55600000       5.00300000       0.67131252      -0.11554487      -0.26354015
S        7.50000000      14.05800000       5.00400000      -0.71557818       0.58422411       1.52615914
C        7.39800000      15.17900000       6.35300000       0.05647737       1.27716938       0.18906352
O        7.24900000      14.83000000       3.78700000       0.02038731      -0.24250338      -0.77709954
O        6.66900000      12.91200000       5.37700000      -0.11555516      -0.44343254      -0.64137562
H        9.20000000      12.84400000       4.17700000       0.24504621      -0.16842733      -0.33214439
H        9.51200000      13.01000000       5.91400000      -0.26213067       0.60248100      -0.15893173
H        9.76700000      14.46600000       4.75400000       0.06671345      -0.56213370       0.28144892
H        7.44300000      14.63600000       7.29600000      -0.21347974      -0.14152690       0.20343495
H        6.47800000      15.82900000       6.27000000       0.68801904      -0.76946079       0.01778278
H        8.29800000      15.82100000       6.32200000      -0.24616926       0.02830631      -0.05382451
C       10.94700000       0.73700000       7.38300000      -1.57639696      -0.96006028       0.13128979
S       11.20200000       1.22100000       9.12000000      -1.30657149       0.26545203      -2.33600425
C       12.62000000       2.26700000       8.89800000       0.51351671      -0.08865524       0.50929290
O       10.02800000       2.06300000       9.45000000       0.75868375      -0.43254598       0.41541420
O       11.53200000      18.74100000       9.84700000       0.06846128       0.43473347       0.49450134
H       10.87000000       1.59400000       6.71600000       0.09733220       0.37854149       0.12158439
H        9.95500000       0.18300000       7.33200000       0.89968923       0.57130277       0.30551033
H       11.70700000       0.04000000       7.04800000       0.54111236      -0.15689130       0.03880412
H       13.45700000       1.57800000       8.88300000       0.57003007      -0.19006676       0.10182135
H       12.68900000       2.93500000       9.75500000       0.06077986       0.11292183       0.31700933
H       12.62500000       2.84100000       7.96800000      -0.49512252      -0.05734795      -0.05361882
C       12.64200000      14.43700000       9.58600000       0.87726716       1.65646523       0.79910047
S       11.05500000      13.76000000       9.59800000      -2.55156505       0.88636526      -0.76483589
C       10.52100000      13.61500000      11.27800000      -0.27568605       0.69771467      -0.10688334
O       10.13600000      14.70400000       8.85600000       1.36049935      -1.25070552       1.22775945
O       11.17600000      12.39300000       9.16700000       0.10685917      -1.62028209      -1.17895580
H       12.54000000      15.31200000       8.94600000       0.42674402       0.06922284      -0.45947109
H       13.41800000      13.73300000       9.31200000      -0.02089793      -0.26365174      -0.39357422
H       12.91800000      14.84800000      10.56900000      -0.16909324      -0.16251996      -0.01363713
H       10.90000000      14.45400000      11.82000000       0.25772020       0.77764667       0.59574265
H       10.83800000      12.71100000      11.76700000       0.38355874      -0.76625514       0.01653528
H        9.44200000      13.69900000      11.24600000      -0.40719644      -0.16618944       0.01224822
C       12.51000000       2.49300000       1.25300000       0.36899807      -0.44713956       0.31742997
S       12.69800000       2.00900000       3.03100000      -0.11711736       0.64069839       0.22037184
C       11.14200000       1.18900000       3.37900000       0.90561203      -0.23828883       2.34099476
O       13.76400000       1.00800000       3.16000000       0.02218914       0.15229931      -0.38507929
O       12.79700000       3.24600000       3.85000000      -0.21579219      -0.73310282      -0.68057569
H       13.08800000       1.79800000       0.60100000      -0.34924068       0.25503031       0.41382474
H       12.97200000       3.47000000       1.25800000       0.30860748       0.43845026      -0.30828506
H       11.46400000       2.58600000       0.91900000       0.15015141      -0.18673512       0.37858469
H       10.80700000       0.77200000       2.48100000      -0.67234713      -0.45363057      -1.63849065
H       10.43600000       1.89800000       3.82300000      -0.03516138       0.05604748      -0.14326239
H       11.33900000       0.33600000       4.09100000       0.06472547       0.85883234      -0.39056809
C        0.97100000       9.99500000       2.56900000      -0.81147519       0.81689199       0.29169733
S        0.23100000      10.16800000       4.21900000       0.61563888       0.56081472      -0.95228887
C        1.11600000      11.61700000       4.87600000       0.59004663       0.09077538       1.00339520
O       17.54000000      10.56300000       4.12700000       0.90219966      -0.74364537       0.21536025
O        0.57500000       8.90900000       4.96200000      -1.12796156       1.43204544      -0.21880604
H        0.20500000      10.45100000       1.92400000       0.42473136      -0.00546565      -0.27316688
H        1.09600000       8.95300000       2.38400000      -0.21474832      -1.19563300      -0.33849656
H        1.97700000      10.43300000       2.46600000      -0.26580529       0.25699927       0.28821400
H        1.42500000      11.25100000       5.88300000       0.02283345       0.42526975      -0.27566548
H        0.40400000      12.45400000       4.99100000       0.06095109      -0.33091077      -0.15394944
H        2.04800000      11.97300000       4.33200000      -1.04753539      -0.78381218       0.23693540
C       18.70100000      10.74300000       9.40200000       0.06608918      -0.30773742      -0.33024846
S        1.49000000       9.87500000       9.08600000      -1.92412275       0.51897053      -0.71653411
C        2.30700000       9.99600000      10.60000000       0.43421514      -1.43107614       1.57123521
O        1.12600000       8.47800000       8.85900000       0.02289670      -0.89858932       0.04153052
O        2.18000000      10.57000000       8.02500000       1.02563011       0.57750016      -0.66289524
H       18.39800000      11.25900000       8.49300000       0.05151257      -0.00428911      -0.44877015
H        0.13800000      11.50900000      10.14700000      -0.26081684       0.01091125       0.41322465
H       17.94500000       9.98400000       9.63900000       0.00859880       0.26697823       0.42142030
H        2.04100000      10.90400000      11.13300000      -0.01989057       0.32401713       0.04749599
H        3.38900000       9.97300000      10.42500000       0.06232560      -0.13129185       0.04878771
H        1.95900000       9.08000000      11.18100000       0.59454452       1.02972176      -0.36608347
C       17.84300000       5.50300000       9.08700000       0.53857159      -1.25063148      -2.34555384
S       16.21100000       5.98300000       9.33100000      -0.42941489       0.11972086       0.34757821
C       15.32800000       4.42500000       8.95900000      -0.01042737       1.37638414       1.29776083
O       16.12700000       6.39900000      10.76500000      -0.27528135      -0.45854703      -1.02599006
O       15.76500000       6.96000000       8.31500000      -0.03624639       0.18743961      -0.15966449
H       17.92900000       4.58200000       9.61900000       0.22467175      -0.74972706       1.00358649
H       18.62600000       6.17900000       9.34900000       0.30862702       0.98207510       0.52288272
H       18.02600000       5.14700000       8.02800000      -0.43432621       0.69678958       0.60865576
H       15.74900000       3.69700000       9.61900000       0.29992744      -0.81500943       0.31960100
H       15.48400000       4.21200000       7.93800000       0.43438997      -0.33559584      -1.47535568
H       14.26300000       4.54800000       9.13400000      -0.22897064       0.30696712       0.24793304
C        6.32300000       2.34500000      17.63100000      -0.00653009       0.33218141       0.40672079
S        5.15700000       3.23300000      18.60800000       0.32627508      -2.42696218       0.57208541
C        4.87700000       2.01700000       1.19200000       0.82694861       0.19970943      -0.07438768
O        5.78900000       4.39400000       0.44000000       0.68535794       1.06763114       0.39404833
O        3.97300000       3.37700000      17.78600000      -1.07295640       0.41396821      -0.23391436
H        7.07200000       1.93600000      18.31500000       0.04949323      -0.16449251      -0.12490317
H        6.76100000       3.10100000      16.98400000       0.12212484      -0.02676621      -0.54064956
H        5.71800000       1.58400000      17.13400000       0.41952334       0.00397647      -0.21279531
H        5.59600000       2.16600000       2.00600000       0.27413516       0.22027671      -0.33625558
H        4.98600000       0.98700000       0.84000000      -0.11432874      -0.00114466      -0.29890568
H        3.91700000       2.15700000       1.62900000      -1.13871392       0.15835683       0.09934126
C        4.60400000       6.40000000      16.38900000       1.27643661      -0.41869390      -0.69719942
S        3.28900000       6.90500000      15.23200000       0.39831893      -1.70990150      -1.41219550
C        1.91100000       5.84300000      15.84500000      -0.26555127       1.17192640       0.10651413
O        3.02400000       8.33200000      15.44900000      -0.30358303      -0.16974219       0.05123952
O        3.62200000       6.40600000      13.84900000      -0.43814481       0.90675565       1.94231588
H        5.42300000       5.86900000      15.81800000      -0.75328187       0.55135152       0.17092592
H        4.27000000       5.68100000      17.13800000      -0.45391339      -0.02155202       0.01789334
H        5.03400000       7.28400000      16.87300000      -0.16218366       0.16524996      -0.08138056
H        1.89100000       5.88200000      16.93500000      -0.08464998       0.28393980       0.22665767
H        2.06900000       4.82800000      15.56400000       0.61302406      -1.06292756      -0.48039010
H        0.93900000       6.13400000      15.42000000       0.20396512       0.36489510      -0.01143730
C       16.93500000      17.97400000      12.17300000       0.60231593       2.01262475       1.10310619
S       15.57800000      18.18700000      11.11800000      -1.15334607      -3.18872663      -1.25870268
C       14.10900000      17.59200000      12.10800000       0.76797984      -0.62689002      -0.63472932
O       15.46200000       0.82100000      10.71500000      -0.46250910       1.09944185       0.01678982
O       15.78600000      17.18800000      10.00800000      -0.57770070       0.91120778       1.13437441
H       16.70700000      17.60100000      13.16800000      -0.38845104      -0.05967274       0.15832289
H       17.36000000       0.26200000      12.25200000       0.08455382      -0.85789184       0.01776530
H       17.56800000      17.28800000      11.67300000       1.03701392      -0.66058896      -0.54960317
H       13.35600000      17.33400000      11.37400000      -0.46593638       0.34114891      -0.53164350
H       13.75700000      18.32900000      12.81100000      -0.04925874       0.65066245       0.30947497
H       14.33000000      16.63600000      12.62100000       0.52018255       0.40145362      -0.11116628
C        8.88200000      17.78000000       2.66300000      -1.05181628       0.05666146      -0.30024780
S        8.66000000      18.30300000       0.94100000      -0.59751877      -0.62486965       0.65325000
C        9.34000000      16.97400000      18.72500000       0.59074442      -0.65803071      -1.00359421
O        7.23600000      18.48500000       0.65900000       0.21710088      -0.30550107       0.09449473
O        9.54500000       0.67000000       0.71200000       0.96644176       1.59478549      -0.11134832
H        8.09800000      17.03300000       2.84500000       0.28122934      -0.29836266       0.17849011
H        8.75500000      18.60100000       3.38200000      -0.28339936       0.26433719      -0.42663604
H        9.89500000      17.44000000       2.77300000       0.60715989      -0.66992875       0.02573057
H        8.78500000      16.92500000      17.76100000      -0.07119540      -0.02112676       0.59165048
H        9.22000000      16.03300000       0.53100000      -0.06832193      -0.04685167      -0.18012790
H       10.41800000      17.13600000      18.41900000      -0.91592987       0.10642414       0.73988642
C        4.67700000       6.66100000       1.59300000       1.07473972       0.61116978      -0.75723674
S        3.08300000       6.49100000       2.29000000      -1.00084210      -1.43431264      -2.37557250
C        2.88900000       4.73400000       2.22900000      -1.81537742      -0.25940633       0.61801509
O        3.09300000       6.72800000       3.73100000      -0.28991607       1.34639685       0.92646162
O        2.12300000       7.09400000       1.32300000       0.89538366       0.15763846       1.42965843
H        5.35500000       5.86200000       1.97800000      -0.51407618       0.56872087      -0.19307855
H        5.06800000       7.66500000       1.82900000      -0.12852689      -0.08547119       0.00653009
H        4.57700000       6.57600000       0.46500000       0.08566556      -0.00540600       1.31806535
H        3.24800000       4.30500000       1.31400000       0.37218624      -0.07715007      -0.61169275
H        1.76200000       4.55200000       2.24500000       1.28169503       0.15680285       0.38600901
H        3.38500000       4.35300000       3.13800000      -0.24245505      -0.21734668      -0.36172699
C        6.36900000       5.62500000      11.52200000      -0.64908276      -0.06258477       0.31812982
S        7.68400000       5.30600000      12.72300000      -0.72740782      -0.08282655      -0.13257483
C        8.91000000       4.18900000      12.01100000      -0.10326991      -0.23024231       0.35132688
O        8.29100000       6.64200000      12.91900000       0.40952123       0.02936354      -0.13235475
O        7.10200000       4.62500000      13.87500000       0.07346619       0.05292462       0.23329472
H        5.99100000       4.78000000      10.96100000       0.60844081      -0.70558019      -0.51926004
H        6.60500000       6.48700000      10.91400000       0.46168172       0.09143769      -0.50905636
H        5.44800000       5.87800000      12.05900000       0.12408093       0.30101913       0.89709499
H        9.23000000       4.64900000      11.07200000       0.29396145      -0.11777093      -0.10886977
H        8.49300000       3.15700000      11.85500000       0.11315117       0.95691634       0.11137403
H        9.72700000       4.14500000      12.78100000      -0.43516027       0.12201274      -0.56916978
C        8.56500000       0.56200000      15.81700000       0.25874247       0.54771135      -2.00044955
S       10.23100000       1.20800000      15.79000000       1.12909593      -0.79621261       0.81611141
C       10.10700000       2.42200000      17.11700000       2.55186998       0.45598930      -1.21269073
O       11.14600000       0.05600000      16.13900000      -1.35000256       1.66185169      -0.18184026
O       10.56100000       1.97500000      14.57000000      -0.64384182      -0.61991205       0.12315688
H        8.57000000      18.43700000      15.16800000      -0.11475246      -0.53914495       0.10939633
H        7.85400000       1.26000000      15.35400000       0.15935699       0.25744355       0.07123962
H        8.28500000       0.38600000      16.82100000      -0.23785946      -0.48932931       1.19079162
H       11.17400000       2.69700000      17.34500000      -0.74510576      -0.24927516      -0.08091057
H        9.63600000       2.00700000      17.95500000      -0.73684223      -0.68542325       1.28443686
H        9.65500000       3.32800000      16.74700000      -0.49171324       0.34614662      -0.41337223
C        1.37200000       1.64400000      11.65400000      -0.14536144      -0.68573641      -1.25287862
S        0.89900000       2.70600000      10.22300000      -0.07609078       0.48275860       1.42890201
C        1.75500000       2.08300000       8.83200000      -0.58830136      -1.76771944       0.68356897
O       18.17600000       2.52100000       9.97300000       1.20094079       0.44695135       0.50971045
O        1.49000000       4.04300000      10.51000000      -0.86769905      -0.66910908      -0.29831433
H        2.44900000       1.44000000      11.81200000      -0.04131146       0.21726132      -0.55109441
H        0.80200000       0.72000000      11.50700000       0.13870640      -0.16503913       0.05678693
H        1.04900000       2.12000000      12.55100000      -0.65937900       0.80401128       0.75755710
H        1.20800000       1.18300000       8.47600000       0.45022745       0.20181156       0.20327760
H        2.76200000       1.87500000       9.20300000       0.33614091       0.07202998      -0.54886784
H        1.63900000       2.83200000       8.09000000       0.30563683       0.97026654      -0.95785891
C       12.66200000       5.97900000       1.89400000       1.88745830       0.64121313      -0.41237156
S       12.67500000       7.78400000       1.99000000       0.89263978       1.12694392       2.66381428
C       13.66400000       8.25800000       0.62400000       0.36863555      -1.65805623      -0.90263675
O       11.35700000       8.41700000       1.94700000      -0.69336539      -0.63376156      -0.93303593
O       13.40700000       8.22000000       3.22100000       0.10117703      -0.80838781      -0.84152882
H       12.29000000       5.69300000       0.92400000      -0.45120550      -0.16001056      -0.60358503
H       12.11100000       5.55800000       2.70400000      -0.56921349      -0.27839907       0.86025416
H       13.75200000       5.66200000       1.94700000      -1.03405458       0.34191407       0.11897010
H       13.37700000       7.64900000      18.47900000       0.11242355       0.61914175       0.58489619
H       14.72500000       8.05200000       0.84900000      -0.24736123       0.15367742       0.04146624
H       13.47400000       9.30000000       0.47900000      -0.08855806       0.96585607      -0.24283454
C        5.25800000       7.73100000       5.80200000       0.56599395       0.52685713      -0.14597697
S        4.85000000       9.38000000       5.11200000       0.78832138      -0.23864570       0.48553230
C        5.33600000      10.27100000       6.58400000      -1.00040141       0.99406518      -0.24221696
O        5.75400000       9.80400000       4.04600000       0.26676894      -0.42860807      -0.40631815
O        3.38800000       9.49000000       4.75700000       1.56409269       0.08565939       0.93025297
H        4.49900000       7.50900000       6.53200000      -0.90602186      -0.40308062       0.07699786
H        6.19800000       7.71900000       6.38900000       0.01494737       0.62758474      -0.55724346
H        5.35600000       7.02000000       5.00200000      -0.36759682      -0.54458798      -0.48091974
H        6.34900000      10.01800000       6.89200000       0.18308724      -0.67484059      -0.11059601
H        4.57100000       9.95800000       7.32300000       0.35775978       0.75960112       0.05711860
H        5.42400000      11.35100000       6.31300000      -0.77155316      -0.42033889       0.38938384
C        9.07600000       9.10400000      18.45000000       0.12689218      -0.44550177      -0.10448810