Created from lammps.lmp
458          atoms
7            atom types
  0.000000000000  18.510000000000 xlo xhi
  0.000000000000  18.510000000000 ylo yhi
  0.000000000000  18.510000000000 zlo zhi
  0.000000000000   0.000000000000   0.000000000000 xy xz yz

Masses

1             15.999000000000 # 8
2              1.008000000000 # 1
3             12.011000000000 # 6
4             32.065000000000 # 16
5             14.007000000000 # 7
6             18.998000000000 # 9
7              6.941000000000 # 3

Atoms # atomic

1            1              0.787000000000  16.401000000000   1.920000000000
2            1             15.096000000000  11.418000000000   0.089000000000
3            1             14.443000000000  14.872000000000   0.339000000000
4            1              1.426000000000   8.206000000000  18.104000000000
5            1             14.827000000000   8.895000000000  17.665000000000
6            1             16.520000000000  15.444000000000   2.412000000000
7            1              1.553000000000   0.279000000000   4.304000000000
8            1             17.449000000000   3.666000000000  15.427000000000
9            1              4.641000000000  14.792000000000   3.730000000000
10           1              2.357000000000   2.726000000000   0.684000000000
11           1             13.175000000000  11.363000000000  15.454000000000
12           1             10.827000000000  11.102000000000  11.990000000000
13           1             16.178000000000  11.053000000000  15.683000000000
14           1              4.136000000000   4.779000000000  17.633000000000
15           1             10.027000000000   1.743000000000   5.099000000000
16           1              0.181000000000   2.189000000000   2.409000000000
17           1              0.944000000000   5.562000000000  17.303000000000
18           1              1.978000000000  14.174000000000  10.854000000000
19           1             14.602000000000   4.094000000000  14.717000000000
20           1              0.992000000000   8.177000000000   3.242000000000
21           1              1.796000000000   0.964000000000   7.245000000000
22           1              7.928000000000   4.044000000000   5.050000000000
23           1              1.528000000000  14.571000000000   4.223000000000
24           1             16.873000000000   0.012000000000   2.574000000000
25           1              3.986000000000   7.464000000000  16.549000000000
26           1              4.425000000000   7.526000000000  14.083000000000
27           1             11.403000000000  16.429000000000  18.038000000000
28           1              9.653000000000  17.545000000000  16.776000000000
29           1              5.164000000000  16.550000000000   6.937000000000
30           1              4.264000000000  14.157000000000   7.005000000000
31           1             13.205000000000   4.552000000000   8.032000000000
32           1             11.133000000000   4.092000000000   6.789000000000
33           1              8.953000000000   1.976000000000   8.059000000000
34           1              6.928000000000   2.655000000000   9.450000000000
35           1              8.564000000000   5.446000000000   2.789000000000
36           1             10.130000000000   6.251000000000   1.126000000000
37           1              3.482000000000   9.443000000000   4.389000000000
38           1              3.568000000000  11.984000000000   4.690000000000
39           1              3.410000000000  11.597000000000  10.332000000000
40           1              2.373000000000   9.523000000000   9.795000000000
41           1             12.337000000000   9.705000000000   9.548000000000
42           1             14.170000000000   8.315000000000  10.387000000000
43           1              7.846000000000   4.335000000000  15.389000000000
44           1              9.804000000000   3.133000000000  16.359000000000
45           1             16.938000000000   3.903000000000  12.378000000000
46           1             17.224000000000   5.769000000000  10.747000000000
47           1              0.438000000000   0.663000000000   9.910000000000
48           1              1.478000000000  17.244000000000  11.211000000000
49           1              9.128000000000  16.519000000000   7.111000000000
50           1             10.755000000000  17.583000000000   5.485000000000
51           1              2.459000000000   2.830000000000  15.471000000000
52           1              1.306000000000   4.661000000000  14.322000000000
53           1             10.051000000000   7.822000000000  10.738000000000
54           1             10.058000000000   5.230000000000  10.269000000000
55           1             13.939000000000  14.345000000000  14.271000000000
56           1             14.333000000000  12.385000000000  12.851000000000
57           1             16.560000000000   7.827000000000   7.220000000000
58           1              0.234000000000   8.740000000000   6.202000000000
59           1             11.878000000000   0.490000000000   2.778000000000
60           1             14.228000000000   0.985000000000   2.620000000000
61           1              4.684000000000   8.161000000000   1.495000000000
62           1              6.013000000000   6.045000000000   1.277000000000
63           1             13.798000000000   6.977000000000  15.833000000000
64           1             12.204000000000   5.452000000000  14.518000000000
65           1             18.395000000000   9.698000000000  13.583000000000
66           1             17.078000000000   8.067000000000  14.802000000000
67           1             14.816000000000  12.435000000000   3.180000000000
68           1             12.837000000000  14.100000000000   3.591000000000
69           1             15.304000000000   1.678000000000  15.563000000000
70           1             15.131000000000  17.775000000000  16.422000000000
71           1             14.145000000000  18.298000000000  11.501000000000
72           1             15.366000000000   1.637000000000  12.535000000000
73           1              4.675000000000   1.780000000000   1.519000000000
74           1              4.156000000000   0.066000000000   3.236000000000
75           1              3.479000000000  16.269000000000   1.177000000000
76           1              4.916000000000  16.093000000000  17.558000000000
77           1              1.846000000000   3.891000000000   9.867000000000
78           1              3.781000000000   2.799000000000   8.637000000000
79           1              5.041000000000   4.915000000000   6.453000000000
80           1              3.138000000000   6.552000000000   5.904000000000
81           1              7.882000000000  12.598000000000   9.324000000000
82           1              8.685000000000  10.283000000000   9.433000000000
83           1              6.647000000000   9.617000000000   5.853000000000
84           1              8.925000000000   8.899000000000   6.585000000000
85           1              5.877000000000  13.097000000000  16.715000000000
86           1              6.457000000000  11.167000000000  18.219000000000
87           1              9.942000000000  11.330000000000  15.292000000000
88           1              8.541000000000   9.670000000000  16.670000000000
89           1             17.130000000000   5.097000000000   2.292000000000
90           1             15.036000000000   3.960000000000   3.143000000000
91           1             14.556000000000   8.787000000000   1.874000000000
92           1             16.570000000000   7.895000000000   3.145000000000
93           1              8.698000000000  16.363000000000  14.024000000000
94           1              6.602000000000  15.257000000000  14.810000000000
95           1              4.418000000000  15.625000000000  12.898000000000
96           1              4.688000000000  17.602000000000  11.388000000000
97           1             17.802000000000  15.437000000000  18.112000000000
98           1             16.979000000000  13.614000000000  16.631000000000
99           1              3.159000000000  14.289000000000  15.590000000000
100          1              1.510000000000  15.115000000000  13.980000000000
101          1             17.433000000000  17.018000000000   5.512000000000
102          1             15.625000000000  15.408000000000   5.106000000000
103          1             15.107000000000  13.412000000000   7.764000000000
104          1             16.915000000000  13.800000000000   9.349000000000
105          2              0.052000000000  15.689000000000   1.854000000000
106          2              1.499000000000  16.022000000000   1.337000000000
107          2             15.828000000000  11.961000000000   0.359000000000
108          2             15.096000000000  10.792000000000   0.861000000000
109          2             15.286000000000  15.351000000000   0.174000000000
110          2             14.469000000000  14.123000000000  18.203000000000
111          2              2.266000000000   8.662000000000  18.169000000000
112          2              0.952000000000   8.330000000000   0.415000000000
113          2             14.790000000000   8.181000000000  16.914000000000
114          2             15.628000000000   8.644000000000  18.115000000000
115          2             16.397000000000  15.649000000000   3.380000000000
116          2             15.802000000000  14.788000000000   2.311000000000
117          2              2.498000000000   0.216000000000   3.959000000000
118          2              1.602000000000   0.676000000000   5.272000000000
119          2             17.363000000000   3.157000000000  16.210000000000
120          2             18.419000000000   3.855000000000  15.420000000000
121          2              5.074000000000  15.588000000000   4.152000000000
122          2              4.608000000000  15.096000000000   2.799000000000
123          2              1.547000000000   2.562000000000   1.189000000000
124          2              3.012000000000   2.086000000000   1.031000000000
125          2             13.460000000000  11.372000000000  14.435000000000
126          2             12.208000000000  11.335000000000  15.446000000000
127          2             10.343000000000  11.315000000000  12.793000000000
128          2             11.699000000000  11.597000000000  12.091000000000
129          2             16.384000000000  11.931000000000  15.981000000000
130          2             16.987000000000  10.493000000000  15.360000000000
131          2              3.911000000000   5.756000000000  17.239000000000
132          2              4.631000000000   4.884000000000  18.487000000000
133          2             10.159000000000   1.496000000000   4.092000000000
134          2              9.937000000000   0.864000000000   5.545000000000
135          2             17.851000000000   2.235000000000   1.947000000000
136          2              0.219000000000   3.074000000000   2.689000000000
137          2              0.023000000000   5.474000000000  17.599000000000
138          2              1.204000000000   6.472000000000  17.645000000000
139          2              2.273000000000  13.212000000000  10.684000000000
140          2              1.029000000000  14.166000000000  10.741000000000
141          2             15.092000000000   4.408000000000  15.483000000000
142          2             13.883000000000   4.657000000000  14.341000000000
143          2              0.030000000000   7.898000000000   3.239000000000
144          2              1.357000000000   7.711000000000   4.006000000000
145          2              2.288000000000   1.691000000000   7.709000000000
146          2              0.845000000000   1.083000000000   7.549000000000
147          2              8.032000000000   4.484000000000   4.133000000000
148          2              7.106000000000   4.491000000000   5.381000000000
149          2              1.422000000000  15.125000000000   3.312000000000
150          2              0.521000000000  14.511000000000   4.365000000000
151          2             16.095000000000   0.417000000000   3.092000000000
152          2             16.375000000000  17.821000000000   2.098000000000
153          2              6.041000000000  10.004000000000  15.962000000000
154          2              4.335000000000  10.384000000000  16.038000000000
155          2              4.999000000000  10.125000000000  14.493000000000
156          2              7.298000000000   8.037000000000  16.227000000000
157          2              6.983000000000   7.491000000000  14.589000000000
158          2              6.648000000000   6.374000000000  15.754000000000
159          2             11.802000000000  16.718000000000  14.495000000000
160          2             12.900000000000  16.873000000000  15.940000000000
161          2             11.806000000000  18.072000000000  15.649000000000
162          2              9.939000000000  14.780000000000  15.349000000000
163          2              9.308000000000  14.704000000000  16.891000000000
164          2             10.995000000000  14.121000000000  16.548000000000
165          2              7.120000000000  13.605000000000   7.578000000000
166          2              7.660000000000  15.005000000000   6.744000000000
167          2              6.676000000000  13.758000000000   5.879000000000
168          2              5.223000000000  15.960000000000   9.656000000000
169          2              6.687000000000  14.934000000000   9.075000000000
170          2              5.100000000000  14.203000000000   9.414000000000
171          2             13.009000000000   1.916000000000   5.721000000000
172          2             14.438000000000   2.599000000000   6.531000000000
173          2             13.595000000000   3.659000000000   5.342000000000
174          2             13.226000000000   1.708000000000   8.609000000000
175          2             11.687000000000   1.048000000000   8.299000000000
176          2             11.937000000000   2.337000000000   9.521000000000
177          2              6.972000000000   0.987000000000   6.274000000000
178          2              6.169000000000   2.556000000000   6.943000000000
179          2              5.714000000000   0.860000000000   7.573000000000
180          2              6.667000000000  18.101000000000   9.075000000000
181          2              7.729000000000   0.192000000000  10.458000000000
182          2              8.610000000000  18.045000000000   8.993000000000
183          2             12.059000000000   4.945000000000   2.819000000000
184          2             10.736000000000   4.502000000000   4.101000000000
185          2             11.213000000000   6.206000000000   3.748000000000
186          2              9.768000000000   3.880000000000   0.368000000000
187          2              9.071000000000   3.121000000000   1.869000000000
188          2             10.704000000000   2.989000000000   1.650000000000
189          2              4.450000000000  10.068000000000   1.890000000000
190          2              4.497000000000  11.920000000000   2.283000000000
191          2              2.974000000000  11.034000000000   1.537000000000
192          2              1.008000000000   9.936000000000   4.082000000000
193          2              1.174000000000  10.801000000000   2.536000000000
194          2              1.164000000000  11.807000000000   4.120000000000
195          2              3.010000000000  12.386000000000   7.866000000000
196          2              2.017000000000  10.836000000000   7.520000000000
197          2              3.788000000000  10.969000000000   7.095000000000
198          2              5.461000000000  10.502000000000   8.342000000000
199          2              4.765000000000   8.876000000000   8.248000000000
200          2              5.396000000000   9.584000000000   9.822000000000
201          2             13.739000000000   6.757000000000   8.462000000000
202          2             13.316000000000   7.995000000000   7.136000000000
203          2             12.077000000000   7.352000000000   8.400000000000
204          2             15.073000000000  10.767000000000   8.858000000000
205          2             13.768000000000  10.551000000000   7.680000000000
206          2             15.341000000000   9.606000000000   7.518000000000
207          2              6.938000000000   2.748000000000  17.411000000000
208          2              7.887000000000   1.242000000000  16.905000000000
209          2              6.575000000000   1.697000000000  15.977000000000
210          2              9.647000000000   2.238000000000  13.657000000000
211          2              7.849000000000   2.099000000000  13.632000000000
212          2              8.936000000000   0.884000000000  14.541000000000
213          2             17.686000000000   2.975000000000   9.771000000000
214          2             16.294000000000   3.875000000000   8.884000000000
215          2             15.909000000000   2.596000000000  10.111000000000
216          2             14.222000000000   4.836000000000  12.322000000000
217          2             14.171000000000   4.408000000000  10.620000000000
218          2             14.602000000000   6.110000000000  11.055000000000
219          2             17.235000000000  17.565000000000  11.945000000000
220          2             17.526000000000  16.128000000000  10.952000000000
221          2             16.532000000000  17.450000000000  10.173000000000
222          2             18.353000000000  17.155000000000   8.018000000000
223          2              0.156000000000  15.681000000000   8.965000000000
224          2              1.571000000000  16.625000000000   8.503000000000
225          2             11.871000000000  15.825000000000   8.016000000000
226          2             12.691000000000  15.807000000000   6.483000000000
227          2             11.628000000000  14.527000000000   6.824000000000
228          2              9.584000000000  14.355000000000   5.054000000000
229          2             10.442000000000  15.308000000000   3.844000000000
230          2              8.895000000000  15.906000000000   4.332000000000
231          2              4.621000000000   3.473000000000  13.744000000000
232          2              4.141000000000   5.134000000000  13.970000000000
233          2              3.642000000000   4.325000000000  12.512000000000
234          2              1.333000000000   3.078000000000  12.128000000000
235          2              0.821000000000   1.969000000000  13.270000000000
236          2              2.552000000000   1.944000000000  12.593000000000
237          2              7.917000000000   5.341000000000  12.239000000000
238          2              8.256000000000   7.067000000000  12.665000000000
239          2              9.511000000000   5.870000000000  12.802000000000
240          2              7.242000000000   5.775000000000   9.728000000000
241          2              8.374000000000   6.660000000000   8.635000000000
242          2              7.233000000000   7.525000000000   9.708000000000
243          2             14.245000000000  15.712000000000  11.807000000000
244          2             12.804000000000  14.836000000000  11.493000000000
245          2             14.226000000000  14.327000000000  10.547000000000
246          2             16.495000000000  15.182000000000  13.506000000000
247          2             16.791000000000  13.786000000000  12.203000000000
248          2             16.725000000000  13.489000000000  13.997000000000
249          2              1.261000000000   8.110000000000   8.761000000000
250          2              0.334000000000   6.640000000000   9.094000000000
251          2             18.038000000000   8.372000000000   9.479000000000
252          2             18.060000000000   6.236000000000   5.482000000000
253          2             17.701000000000   5.462000000000   7.136000000000
254          2              0.943000000000   5.926000000000   6.690000000000
255          2             14.424000000000  16.951000000000   1.628000000000
256          2             12.997000000000  16.744000000000   0.887000000000
257          2             12.960000000000  16.679000000000   2.680000000000
258          2             13.070000000000   1.852000000000   0.189000000000
259          2             11.914000000000   0.481000000000  18.450000000000
260          2             13.683000000000   0.220000000000  18.231000000000
261          2              7.658000000000   9.168000000000   2.009000000000
262          2              6.940000000000   8.994000000000   0.520000000000
263          2              8.051000000000   7.695000000000   1.001000000000
264          2              5.938000000000   6.008000000000   3.847000000000
265          2              5.148000000000   7.457000000000   4.226000000000
266          2              6.963000000000   7.395000000000   4.070000000000
267          2             12.180000000000   4.808000000000  17.191000000000
268          2             10.670000000000   5.572000000000  17.034000000000
269          2             12.040000000000   6.290000000000  18.042000000000
270          2             10.688000000000   7.642000000000  14.542000000000
271          2             12.169000000000   8.602000000000  14.523000000000
272          2             11.202000000000   8.338000000000  16.083000000000
273          2             15.580000000000   7.683000000000  12.409000000000
274          2             16.795000000000   8.565000000000  11.312000000000
275          2             15.974000000000   9.460000000000  12.596000000000
276          2              1.098000000000   7.467000000000  12.263000000000
277          2             18.280000000000   6.324000000000  12.743000000000
278          2              0.952000000000   6.796000000000  13.893000000000
279          2             11.524000000000  11.378000000000   3.285000000000
280          2             12.762000000000  10.802000000000   2.268000000000
281          2             12.191000000000  12.271000000000   1.812000000000
282          2             12.399000000000  12.709000000000   5.607000000000
283          2             14.273000000000  12.771000000000   5.873000000000
284          2             13.615000000000  11.240000000000   5.463000000000
285          3              5.049000000000   9.753000000000  15.586000000000
286          3              6.598000000000   7.404000000000  15.604000000000
287          3             11.901000000000  16.984000000000  15.530000000000
288          3             10.296000000000  14.911000000000  16.351000000000
289          3              6.830000000000  14.327000000000   6.852000000000
290          3              5.570000000000  15.096000000000   9.076000000000
291          3             13.445000000000   2.831000000000   6.092000000000
292          3             12.221000000000   2.050000000000   8.528000000000
293          3              6.426000000000   1.518000000000   7.160000000000
294          3              7.646000000000   0.110000000000   9.368000000000
295          3             11.105000000000   5.189000000000   3.383000000000
296          3              9.882000000000   3.657000000000   1.405000000000
297          3              3.847000000000  10.981000000000   2.163000000000
298          3              1.415000000000  10.897000000000   3.585000000000
299          3              2.948000000000  11.272000000000   7.771000000000
300          3              4.850000000000   9.782000000000   8.929000000000
301          3             13.130000000000   7.619000000000   8.201000000000
302          3             14.525000000000  10.045000000000   8.208000000000
303          3              7.346000000000   2.066000000000  16.669000000000
304          3              8.735000000000   1.971000000000  14.308000000000
305          3             16.632000000000   3.372000000000   9.802000000000
306          3             14.708000000000   5.047000000000  11.309000000000
307          3             17.351000000000  17.241000000000  10.904000000000
308          3              0.545000000000  16.686000000000   8.753000000000
309          3             11.736000000000  15.575000000000   6.969000000000
310          3              9.774000000000  15.336000000000   4.726000000000
311          3              3.858000000000   4.194000000000  13.538000000000
312          3              1.712000000000   2.507000000000  12.992000000000
313          3              8.664000000000   6.169000000000  12.263000000000
314          3              7.891000000000   6.624000000000   9.578000000000
315          3             13.940000000000  14.715000000000  11.569000000000
316          3             16.394000000000  14.130000000000  13.221000000000
317          3              0.250000000000   7.734000000000   8.875000000000
318          3             18.374000000000   6.083000000000   6.542000000000
319          3             13.409000000000  17.168000000000   1.843000000000
320          3             12.932000000000   0.737000000000   0.270000000000
321          3              7.317000000000   8.435000000000   1.318000000000
322          3              6.029000000000   7.082000000000   3.659000000000
323          3             11.692000000000   5.788000000000  17.142000000000
324          3             11.541000000000   8.000000000000  15.133000000000
325          3             16.355000000000   8.490000000000  12.355000000000
326          3              0.387000000000   7.185000000000  13.026000000000
327          3             12.379000000000  11.685000000000   2.726000000000
328          3             13.377000000000  12.260000000000   5.450000000000
329          3             17.160000000000  18.283000000000  14.959000000000
330          3             12.656000000000   1.381000000000  12.858000000000
331          3              6.846000000000   0.490000000000   2.568000000000
332          3              3.095000000000  18.041000000000  17.762000000000
333          3              4.070000000000   5.114000000000   9.976000000000
334          3              3.024000000000   4.025000000000   4.941000000000
335          3             10.193000000000  12.214000000000   8.085000000000
336          3              8.799000000000  10.805000000000   4.861000000000
337          3              7.248000000000  13.687000000000   0.427000000000
338          3             10.150000000000  11.021000000000  18.111000000000
339          3             15.361000000000   4.243000000000   0.585000000000
340          3             14.214000000000   7.880000000000   4.332000000000
341          3              7.748000000000  14.115000000000  12.689000000000
342          3              4.726000000000  18.039000000000  13.950000000000
343          3              0.186000000000  12.799000000000  18.347000000000
344          3              1.470000000000  12.521000000000  14.543000000000
345          3             15.327000000000  17.250000000000   7.090000000000
346          3             17.487000000000  12.650000000000   6.877000000000
347          4              4.891000000000   7.942000000000  15.460000000000
348          4             10.722000000000  16.552000000000  16.738000000000
349          4              5.311000000000  15.178000000000   7.325000000000
350          4             12.386000000000   3.531000000000   7.368000000000
351          4              7.588000000000   1.696000000000   8.574000000000
352          4              9.837000000000   5.246000000000   2.116000000000
353          4              3.199000000000  10.784000000000   3.931000000000
354          4              3.299000000000  10.536000000000   9.363000000000
355          4             13.537000000000   8.955000000000   9.277000000000
356          4              8.529000000000   3.040000000000  15.725000000000
357          4             16.491000000000   4.566000000000  11.175000000000
358          4              0.443000000000  17.734000000000  10.296000000000
359          4             10.334000000000  16.360000000000   6.168000000000
360          4              2.237000000000   3.587000000000  14.221000000000
361          4              9.378000000000   6.448000000000  10.685000000000
362          4             14.547000000000  13.870000000000  13.030000000000
363          4             18.032000000000   7.755000000000   7.106000000000
364          4             13.090000000000   0.367000000000   1.993000000000
365          4              5.899000000000   7.371000000000   1.874000000000
366          4             12.431000000000   6.481000000000  15.568000000000
367          4             17.753000000000   8.437000000000  13.584000000000
368          4             13.471000000000  12.759000000000   3.637000000000
369          4             15.387000000000   0.249000000000  15.315000000000
370          4             14.377000000000   0.566000000000  12.713000000000
371          4              5.038000000000   0.476000000000   2.076000000000
372          4              4.329000000000  16.887000000000   0.101000000000
373          4              3.002000000000   3.992000000000   8.962000000000
374          4              3.589000000000   5.225000000000   6.382000000000
375          4              8.514000000000  11.498000000000   8.636000000000
376          4              8.023000000000   9.960000000000   6.315000000000
377          4              6.810000000000  12.387000000000  17.583000000000
378          4              9.117000000000  11.028000000000  16.506000000000
379          4             15.661000000000   4.925000000000   2.246000000000
380          4             15.146000000000   7.686000000000   2.699000000000
381          4              7.446000000000  15.727000000000  13.666000000000
382          4              5.172000000000  16.855000000000  12.545000000000