458
Lattice="17.924 0.0 0.0 0.0 17.924 0.0 0.0 0.0 17.924" Properties=species:S:1:pos:R:3:forces:R:3:bec:R:9 virial="15.583594163499603 11.120969236650257 15.588369331549664 11.120969236650257 16.502241467396164 14.13140611247959 15.588369331549664 14.13140611247959 -23.6247981718683" energy=-108870.95809199306 pbc="T T T"
O        0.40600000       3.03900000       2.15700000       0.80937100      -0.10613360       0.79856825      -1      -1      -1      -1      -1      -1      -1      -1      -1
H        1.25100000       2.64600000       2.54500000      -1.03945133       0.64095139      -0.33984844      -1      -1      -1      -1      -1      -1      -1      -1      -1
H        0.17500000       3.80600000       2.74600000       0.40961071      -0.68191266      -0.44817623      -1      -1      -1      -1      -1      -1      -1      -1      -1
O       13.83400000      11.77100000      15.58000000       0.06479438      -0.76922682       0.15394173      -1      -1      -1      -1      -1      -1      -1      -1      -1
H       12.89700000      11.77700000      15.17800000       1.59837012      -0.56631380       0.22172373      -1      -1      -1      -1      -1      -1      -1      -1      -1
H       14.24800000      10.84200000      15.59000000      -1.23198995       1.34354704      -0.36026352      -1      -1      -1      -1      -1      -1      -1      -1      -1
O        3.91100000       3.00500000       8.08800000      -0.50847683      -1.75031976      -0.81296695      -1      -1      -1      -1      -1      -1      -1      -1      -1
H        3.28800000       2.65900000       7.34700000       1.18989584       0.68755469       1.30576416      -1      -1      -1      -1      -1      -1      -1      -1      -1
H        4.22800000       2.11000000       8.50500000      -0.70530045       1.76533912      -0.74828158      -1      -1      -1      -1      -1      -1      -1      -1      -1
O        5.05400000      14.63500000       2.04400000      -0.17436709       1.22622245      -0.77743893      -1      -1      -1      -1      -1      -1      -1      -1      -1
H        4.42100000      15.38900000       2.33200000       1.20607014      -1.43835185      -0.58248450      -1      -1      -1      -1      -1      -1      -1      -1      -1
H        5.28700000      14.83700000       1.07000000      -0.67260476      -0.32143214       1.78107735      -1      -1      -1      -1      -1      -1      -1      -1      -1
O       16.36200000       0.13200000       2.25400000      -0.01117247      -0.74382021       1.59759416      -1      -1      -1      -1      -1      -1      -1      -1      -1
H       17.06300000      17.35800000       2.50800000      -0.98991234       1.21283266      -0.13505080      -1      -1      -1      -1      -1      -1      -1      -1      -1
H       15.67900000       0.11500000       3.01200000       1.22395062      -0.35517736      -1.72924545      -1      -1      -1      -1      -1      -1      -1      -1      -1
O       12.12700000      15.93000000      15.82100000      -0.42699034       1.28160607      -0.88925878      -1      -1      -1      -1      -1      -1      -1      -1      -1
H       11.89800000      15.53900000      14.90500000       0.39835801       0.39709509       1.21890200      -1      -1      -1      -1      -1      -1      -1      -1      -1
H       12.27700000      16.92800000      15.67300000       0.05536563      -1.99448973       0.16941720      -1      -1      -1      -1      -1      -1      -1      -1      -1
O       15.68400000       2.93400000       0.54200000       0.15955136      -0.26990723       0.13181636      -1      -1      -1      -1      -1      -1      -1      -1      -1
H       14.80100000       2.82400000       0.04800000       1.48163174       0.77228026       0.55461117      -1      -1      -1      -1      -1      -1      -1      -1      -1
H       16.03000000       3.85800000       0.64600000      -0.98736180      -0.59143759      -0.29981739      -1      -1      -1      -1      -1      -1      -1      -1      -1
O       11.12800000       3.35500000      11.52100000      -1.40244433      -0.12440644       0.58635761      -1      -1      -1      -1      -1      -1      -1      -1      -1
H       10.25600000       3.88300000      11.63000000       1.41455474      -0.95178956       0.03667422      -1      -1      -1      -1      -1      -1      -1      -1      -1
H       11.32800000       2.97800000      12.41800000      -0.06268401       0.63470155      -0.96536396      -1      -1      -1      -1      -1      -1      -1      -1      -1
O        5.39600000      13.93100000       4.83900000       0.27224179       1.00063332       1.10154656      -1      -1      -1      -1      -1      -1      -1      -1      -1
H        6.04800000      14.68600000       5.01900000      -0.93394302      -1.19429346      -0.29189479      -1      -1      -1      -1      -1      -1      -1      -1      -1
H        5.26100000      13.46900000       5.74100000       0.55748360       0.63901072      -1.66456781      -1      -1      -1      -1      -1      -1      -1      -1      -1
O        3.35700000       5.66900000       8.85300000       0.10163777      -1.99728092       0.57706975      -1      -1      -1      -1      -1      -1      -1      -1      -1
H        2.69800000       5.29400000       9.51400000       0.69311445       0.66743684      -0.60273605      -1      -1      -1      -1      -1      -1      -1      -1      -1
H        3.83500000       4.81900000       8.57300000      -0.63927194       0.86778338       0.04246794      -1      -1      -1      -1      -1      -1      -1      -1      -1
O        5.32300000       8.79000000       1.58800000       0.11163165      -1.65631816       0.43392512      -1      -1      -1      -1      -1      -1      -1      -1      -1
H        4.89300000       7.98400000       1.08100000       1.29460043       1.67545643       1.47688497      -1      -1      -1      -1      -1      -1      -1      -1      -1
H        5.85700000       8.48700000       2.41600000      -1.50744614      -0.12119256      -1.88193146      -1      -1      -1      -1      -1      -1      -1      -1      -1
O       11.72100000      14.57100000      13.58200000      -1.15843942      -1.25032963      -0.66592914      -1      -1      -1      -1      -1      -1      -1      -1      -1
H       10.79200000      14.88900000      13.35700000       1.09290971      -0.31179514       0.29601833      -1      -1      -1      -1      -1      -1      -1      -1      -1
H       11.65500000      13.55300000      13.61600000      -0.21889603       1.25867183       0.21526820      -1      -1      -1      -1      -1      -1      -1      -1      -1
O       11.53400000      11.80300000      14.08200000      -0.73508154      -1.47236652      -0.85833612      -1      -1      -1      -1      -1      -1      -1      -1      -1
H       11.62200000      11.47800000      13.11600000      -0.27621672       0.43662323       1.33755071      -1      -1      -1      -1      -1      -1      -1      -1      -1
H       10.84500000      11.16500000      14.48700000       0.75683410       1.13250933      -0.68155168      -1      -1      -1      -1      -1      -1      -1      -1      -1
O       14.41500000      14.42300000      14.36500000      -0.76967368       0.10697744      -0.71137082      -1      -1      -1      -1      -1      -1      -1      -1      -1
H       14.77500000      14.96500000      13.58400000      -1.13824032      -1.03389569       1.34380363      -1      -1      -1      -1      -1      -1      -1      -1      -1
H       13.40300000      14.31300000      14.32800000       2.16842591       0.74677132      -0.74195307      -1      -1      -1      -1      -1      -1      -1      -1      -1
O       12.95300000       6.43600000       5.40300000      -1.57774524       0.28527626      -0.62180850      -1      -1      -1      -1      -1      -1      -1      -1      -1
H       12.71100000       6.90100000       4.53500000       0.26225254      -0.75390510       1.10390066      -1      -1      -1      -1      -1      -1      -1      -1      -1
H       12.04400000       6.21400000       5.83200000       1.72453519       0.26853941      -0.60367502      -1      -1      -1      -1      -1      -1      -1      -1      -1
O       14.25400000      14.43500000      17.20000000      -1.27161219       0.75723057       0.61449679      -1      -1      -1      -1      -1      -1      -1      -1      -1
H       13.55300000      14.71000000      16.51500000       0.72959583       0.38601415       1.49046040      -1      -1      -1      -1      -1      -1      -1      -1      -1
H       14.01400000      14.81900000       0.19100000       0.34395450      -0.84452673      -1.74585015      -1      -1      -1      -1      -1      -1      -1      -1      -1
O       16.91800000      12.50400000      15.83800000       1.84373720       0.27041940      -0.65356111      -1      -1      -1      -1      -1      -1      -1      -1      -1
H       17.29000000      12.22700000      14.93400000      -0.83661493       0.41832469       0.89059936      -1      -1      -1      -1      -1      -1      -1      -1      -1
H       17.57900000      13.21900000      16.05700000      -0.88763487      -0.57394381      -0.00470923      -1      -1      -1      -1      -1      -1      -1      -1      -1
O       17.62700000      15.73300000       7.91300000       0.71643898      -0.23004536       0.16594107      -1      -1      -1      -1      -1      -1      -1      -1      -1
H        0.36500000      15.23800000       8.48500000      -0.71075222       0.91763194      -1.33243730      -1      -1      -1      -1      -1      -1      -1      -1      -1
H        0.09000000      16.19200000       7.11000000      -0.20224865      -0.82844345       1.44097437      -1      -1      -1      -1      -1      -1      -1      -1      -1
O       14.12200000       3.16800000      10.05500000      -0.15661465      -0.92145620      -0.10043501      -1      -1      -1      -1      -1      -1      -1      -1      -1
H       15.12300000       2.98900000      10.12000000      -1.95330631      -0.16153317      -0.23603295      -1      -1      -1      -1      -1      -1      -1      -1      -1
H       13.63000000       2.30500000       9.84200000       1.35624315       1.17435969       0.23990040      -1      -1      -1      -1      -1      -1      -1      -1      -1
O        3.13100000       8.14000000       8.12000000      -0.58439843      -0.69965379       1.95884036      -1      -1      -1      -1      -1      -1      -1      -1      -1
H        3.19600000       7.12200000       8.33200000       0.08632120       1.29473978      -0.59506439      -1      -1      -1      -1      -1      -1      -1      -1      -1
H        2.93500000       8.48800000       9.05000000       0.58522169      -0.22690810      -1.58145792      -1      -1      -1      -1      -1      -1      -1      -1      -1
O       15.66100000      17.35500000       6.65600000      -0.02423985       0.15133977      -1.36190883      -1      -1      -1      -1      -1      -1      -1      -1      -1
H       15.49200000      17.18200000       5.66100000       0.25699001       0.61927596       1.99145120      -1      -1      -1      -1      -1      -1      -1      -1      -1
H       15.62600000       0.41500000       6.91200000      -0.10867437      -1.30535227      -0.88583099      -1      -1      -1      -1      -1      -1      -1      -1      -1
O       14.75500000       8.79100000       5.64400000       0.09658864       1.90690921      -0.59744421      -1      -1      -1      -1      -1      -1      -1      -1      -1
H       14.18500000       9.61800000       5.48300000       1.06496079      -2.00022484       0.34430365      -1      -1      -1      -1      -1      -1      -1      -1      -1
H       15.66800000       9.19100000       5.81300000      -1.26311264      -0.46621355       0.01667875      -1      -1      -1      -1      -1      -1      -1      -1      -1
O        5.48900000      11.59800000       1.32700000       0.18797748      -0.95254803      -1.85487368      -1      -1      -1      -1      -1      -1      -1      -1      -1
H        5.53000000      10.56800000       1.28700000      -0.26426006       1.78108713       0.17824586      -1      -1      -1      -1      -1      -1      -1      -1      -1
H        5.57200000      11.91600000       0.34500000      -0.10762896      -0.71463715       1.87445006      -1      -1      -1      -1      -1      -1      -1      -1      -1
O        0.68700000       0.43700000       0.33400000       2.14865618      -0.91213080       0.73021650      -1      -1      -1      -1      -1      -1      -1      -1      -1
H        1.68200000       0.60800000       0.51600000      -1.70590241       0.42788405      -0.35181179      -1      -1      -1      -1      -1      -1      -1      -1      -1
H        0.73900000      17.37300000       0.48700000      -0.55044906       1.07027012      -0.09025550      -1      -1      -1      -1      -1      -1      -1      -1      -1
C       12.28200000       7.95300000      12.98100000      -0.15067026       0.10545843      -0.49502533      -1      -1      -1      -1      -1      -1      -1      -1      -1
S       10.70200000       7.16800000      12.62400000       0.98041879      -0.28059171      -0.06168488      -1      -1      -1      -1      -1      -1      -1      -1      -1
C       10.35900000       6.37500000      14.15800000      -0.87671591       1.01161194       1.49714475      -1      -1      -1      -1      -1      -1      -1      -1      -1
O        9.71100000       8.16000000      12.24800000      -0.09831077       0.55714216       0.49980758      -1      -1      -1      -1      -1      -1      -1      -1      -1
O       10.95600000       6.11300000      11.66900000       0.26738190      -0.51557822      -0.96635486      -1      -1      -1      -1      -1      -1      -1      -1      -1
H       12.26800000       8.74900000      13.70400000      -0.50956286       0.70479600       0.34270031      -1      -1      -1      -1      -1      -1      -1      -1      -1
H       12.70700000       8.28900000      12.03500000      -0.26862477       0.23303504      -0.33339600      -1      -1      -1      -1      -1      -1      -1      -1      -1
H       12.98800000       7.24200000      13.36000000       0.31354143      -1.06246990       0.28730692      -1      -1      -1      -1      -1      -1      -1      -1      -1
H       10.30400000       7.21300000      14.90300000      -0.21220499      -0.69468385      -0.27962755      -1      -1      -1      -1      -1      -1      -1      -1      -1
H       11.17100000       5.73100000      14.42900000       1.01307541      -0.24811250      -0.02176439      -1      -1      -1      -1      -1      -1      -1      -1      -1
H        9.47100000       5.72500000      14.20500000      -0.07468181       0.63014298      -0.44854184      -1      -1      -1      -1      -1      -1      -1      -1      -1
C        9.06700000      17.45600000      15.09100000       1.74487519       1.27656517       0.48700195      -1      -1      -1      -1      -1      -1      -1      -1      -1
S        8.57000000      16.98600000      13.51900000      -0.34864727      -0.27860990       0.45883808      -1      -1      -1      -1      -1      -1      -1      -1      -1
C        8.91500000       0.42500000      12.49300000      -1.54132351       1.47707421      -0.47335761      -1      -1      -1      -1      -1      -1      -1      -1      -1
O        9.44400000      15.91400000      13.10700000       0.43071638      -0.99528337      -0.67750785      -1      -1      -1      -1      -1      -1      -1      -1      -1
O        7.12800000      16.77000000      13.53400000      -0.21315784       0.01109431      -0.38108380      -1      -1      -1      -1      -1      -1      -1      -1      -1
H       10.10300000      17.80500000      14.99900000       0.23320165      -0.14100548      -0.07107815      -1      -1      -1      -1      -1      -1      -1      -1      -1
H        9.05900000      16.76800000      15.89500000      -0.11500854      -1.81286545       0.36461743      -1      -1      -1      -1      -1      -1      -1      -1      -1
H        8.55600000       0.35100000      15.51500000      -1.18169094       1.48169345      -0.02219222      -1      -1      -1      -1      -1      -1      -1      -1      -1
H        9.94300000       0.75700000      12.35200000       0.31823883       0.04724814       0.65735966      -1      -1      -1      -1      -1      -1      -1      -1      -1
H        8.17000000       1.23600000      12.76000000       1.04666379      -0.44861949      -0.16144884      -1      -1      -1      -1      -1      -1      -1      -1      -1
H        8.60600000       0.10200000      11.50200000      -0.34160142      -0.32942673      -0.44796128      -1      -1      -1      -1      -1      -1      -1      -1      -1
C        7.92400000      15.41400000       7.69400000       0.73666328      -1.37749486       0.29530356      -1      -1      -1      -1      -1      -1      -1      -1      -1
S        8.10300000      16.55700000       6.40100000      -1.45160537      -0.81439905       1.08010561      -1      -1      -1      -1      -1      -1      -1      -1      -1
C        7.23700000       0.00200000       6.93800000       0.34445020       0.81953663       1.57622675      -1      -1      -1      -1      -1      -1      -1      -1      -1
O        9.48000000      16.84300000       6.26700000       3.22543890       1.10284548      -0.16614521      -1      -1      -1      -1      -1      -1      -1      -1      -1
O        7.45100000      16.03900000       5.23100000      -1.13382573      -0.73714614      -1.55898236      -1      -1      -1      -1      -1      -1      -1      -1      -1
H        8.27300000      15.71500000       8.67900000       0.32429944       0.65242159       0.06363018      -1      -1      -1      -1      -1      -1      -1      -1      -1
H        8.62600000      14.61200000       7.33900000      -0.85307256       0.01148615       0.24788419      -1      -1      -1      -1      -1      -1      -1      -1      -1
H        6.89700000      15.10600000       7.87000000      -0.22316817      -0.39357473      -0.49095270      -1      -1      -1      -1      -1      -1      -1      -1      -1
H        7.60100000       0.40300000       7.88000000       0.65836187      -0.07584292       0.34140550      -1      -1      -1      -1      -1      -1      -1      -1      -1
H        6.22900000      17.70000000       7.15800000      -1.47952652      -0.43732823      -0.23716680      -1      -1      -1      -1      -1      -1      -1      -1      -1
H        7.35600000       0.77100000       6.23000000      -0.09447468       1.08246537      -1.22234317      -1      -1      -1      -1      -1      -1      -1      -1      -1
C       10.99200000      16.74100000       9.26700000       1.29676890      -0.86057607       0.53240506      -1      -1      -1      -1      -1      -1      -1      -1      -1
S       12.51300000      17.42500000       8.67200000       1.52792189       1.27756738      -1.22084061      -1      -1      -1      -1      -1      -1      -1      -1      -1
C       12.28200000      17.67600000       6.97600000      -0.06979312      -1.44268107      -1.30817328      -1      -1      -1      -1      -1      -1      -1      -1      -1
O       12.72000000       0.84500000       9.21800000      -0.41054659      -0.31329923       0.74008285      -1      -1      -1      -1      -1      -1      -1      -1      -1
O       13.58000000      16.43600000       8.71000000      -0.04557075      -0.69643426       1.35134159      -1      -1      -1      -1      -1      -1      -1      -1      -1
H       10.10800000      17.30700000       9.14000000      -0.81363338       1.07771346      -0.43634247      -1      -1      -1      -1      -1      -1      -1      -1      -1
H       11.20400000      16.59600000      10.31800000      -0.05665941      -0.20113125       0.67404303      -1      -1      -1      -1      -1      -1      -1      -1      -1
H       10.93800000      15.78300000       8.78000000      -0.26098139      -0.72264563      -0.30504856      -1      -1      -1      -1      -1      -1      -1      -1      -1
H       11.57100000       0.52800000       6.95700000      -1.19219852       0.82072962      -0.69192043      -1      -1      -1      -1      -1      -1      -1      -1      -1
H       11.94300000      16.71600000       6.48700000       0.15069494       0.97962175       0.43903750      -1      -1      -1      -1      -1      -1      -1      -1      -1
H       13.21600000       0.09900000       6.51100000       0.08987703      -0.17072024       0.44555782      -1      -1      -1      -1      -1      -1      -1      -1      -1
C        9.15900000      12.36200000       9.51400000       0.29782427       0.68580686      -0.56420601      -1      -1      -1      -1      -1      -1      -1      -1      -1
S        9.41500000      11.69100000      11.10200000       0.23931830       0.47132953      -0.30551239      -1      -1      -1      -1      -1      -1      -1      -1      -1
C        8.82300000      12.91800000      12.18200000      -0.07416039       0.13566993       1.48694159      -1      -1      -1      -1      -1      -1      -1      -1      -1
O        8.56800000      10.53000000      11.18700000      -0.93934490      -0.98134336       0.26134289      -1      -1      -1      -1      -1      -1      -1      -1      -1
O       10.84200000      11.55900000      11.31600000       1.28541336      -0.28295661       0.27109251      -1      -1      -1      -1      -1      -1      -1      -1      -1
H        8.14700000      12.70900000       9.44300000      -1.33000041      -0.82103250      -0.41950843      -1      -1      -1      -1      -1      -1      -1      -1      -1
H        9.57800000      11.70300000       8.74400000      -0.49570153      -0.13542978       0.03690870      -1      -1      -1      -1      -1      -1      -1      -1      -1
H        9.59900000      13.33300000       9.38700000       1.33426535       0.65073495       0.25960174      -1      -1      -1      -1      -1      -1      -1      -1      -1
H        7.75900000      13.06000000      12.02700000      -0.48290309      -0.17714542       0.23647980      -1      -1      -1      -1      -1      -1      -1      -1      -1
H        9.27700000      13.87800000      12.00900000       0.55172793       0.45743374      -0.39204133      -1      -1      -1      -1      -1      -1      -1      -1      -1
H        9.08900000      12.62000000      13.24000000      -0.50624614       0.07698552      -1.05410405      -1      -1      -1      -1      -1      -1      -1      -1      -1
C       13.28700000       3.15700000       5.46200000       0.07286970       0.53175097      -0.76911421      -1      -1      -1      -1      -1      -1      -1      -1      -1
S       15.01500000       3.08600000       5.88700000      -1.10786273       0.60971248      -3.21244197      -1      -1      -1      -1      -1      -1      -1      -1      -1
C       15.68200000       2.56600000       4.33700000       0.63515561       0.79172809       0.12472937      -1      -1      -1      -1      -1      -1      -1      -1      -1
O       15.45600000       4.41600000       6.16900000       0.32044021       1.58048347       0.54873105      -1      -1      -1      -1      -1      -1      -1      -1      -1
O       15.32000000       2.03300000       6.78300000       0.30254688      -1.92960948       2.67028369      -1      -1      -1      -1      -1      -1      -1      -1      -1
H       13.17200000       3.93900000       4.65900000       0.17200630      -0.38852200       0.81104890      -1      -1      -1      -1      -1      -1      -1      -1      -1
H       12.79200000       3.50100000       6.37200000      -0.43850888      -0.24524932       0.03910854      -1      -1      -1      -1      -1      -1      -1      -1      -1
H       12.98400000       2.19700000       5.01500000      -0.11986947       0.04985267       0.56374115      -1      -1      -1      -1      -1      -1      -1      -1      -1
H       15.40900000       3.31300000       3.60600000       0.02350040       0.33976000      -0.51577979      -1      -1      -1      -1      -1      -1      -1      -1      -1
H       15.33600000       1.60400000       4.01900000      -0.49049659      -0.61797292       0.07903366      -1      -1      -1      -1      -1      -1      -1      -1      -1
H       16.76200000       2.54400000       4.48400000       0.26435159      -0.00452000      -0.08899360      -1      -1      -1      -1      -1      -1      -1      -1      -1
C        1.28300000      11.85900000       3.83500000      -0.60734912       0.73779251      -0.28771572      -1      -1      -1      -1      -1      -1      -1      -1      -1
S        2.68800000      10.86700000       3.46300000      -1.29296006      -0.97656008      -1.47858036      -1      -1      -1      -1      -1      -1      -1      -1      -1
C        2.23600000      10.56400000       1.77200000       1.15212531       0.46595592      -1.13213601      -1      -1      -1      -1      -1      -1      -1      -1      -1
O        3.83800000      11.69000000       3.42500000       2.33249418       2.18744384       0.64001602      -1      -1      -1      -1      -1      -1      -1      -1      -1
O        2.80300000       9.64400000       4.21400000      -0.58715825      -0.99795423       0.42921228      -1      -1      -1      -1      -1      -1      -1      -1      -1
H        1.40500000      12.75600000       3.22800000       0.11001391       0.11983913      -0.61015420      -1      -1      -1      -1      -1      -1      -1      -1      -1
H        1.32000000      12.30000000       4.81800000      -0.14144617      -0.51304722       0.84629307      -1      -1      -1      -1      -1      -1      -1      -1      -1
H        0.33200000      11.38400000       3.52300000       0.40786853      -0.02830528       0.64521942      -1      -1      -1      -1      -1      -1      -1      -1      -1
H        2.30600000      11.52200000       1.20400000      -0.41285750      -0.40128187       0.60221566      -1      -1      -1      -1      -1      -1      -1      -1      -1
H        1.28900000      10.08900000       1.73000000      -1.15485325      -0.16298224      -0.08807315      -1      -1      -1      -1      -1      -1      -1      -1      -1
H        2.93600000       9.92200000       1.22800000       0.43741102      -0.29914274       0.50648782      -1      -1      -1      -1      -1      -1      -1      -1      -1
C        0.18000000      12.38400000       7.36600000      -0.41032342       0.37533070      -1.74172456      -1      -1      -1      -1      -1      -1      -1      -1      -1
S       17.84200000      10.63400000       7.26600000       1.77836433       1.09777269       2.08724743      -1      -1      -1      -1      -1      -1      -1      -1      -1
C        0.11400000      10.26100000       8.96600000       1.53427766       0.17985485       0.34779727      -1      -1      -1      -1      -1      -1      -1      -1      -1
O       16.51300000      10.30100000       6.85300000      -1.57041400       0.00396618      -0.52313623      -1      -1      -1      -1      -1      -1      -1      -1      -1
O        1.04100000      10.06800000       6.57300000       1.15216233      -0.43094469      -1.16055287      -1      -1      -1      -1      -1      -1      -1      -1      -1
H       17.53300000      12.89700000       8.12700000      -0.01757349      -0.03911985       0.58962137      -1      -1      -1      -1      -1      -1      -1      -1      -1
H       17.75300000      12.76700000       6.41500000      -0.59992532       0.23654305      -0.48324505      -1      -1      -1      -1      -1      -1      -1      -1      -1
H        1.23600000      12.60300000       7.27400000       0.58953035      -0.13382953       0.83192883      -1      -1      -1      -1      -1      -1      -1      -1      -1
H       17.12900000      10.58800000       9.46000000       0.10830413       0.07131727       0.55848068      -1      -1      -1      -1      -1      -1      -1      -1      -1
H        1.10700000      10.68100000       9.37300000      -1.65582297      -0.14106513      -0.55732111      -1      -1      -1      -1      -1      -1      -1      -1      -1
H        0.28100000       9.19900000       8.97900000      -0.29261162      -0.97989480       0.20599115      -1      -1      -1      -1      -1      -1      -1      -1      -1
C       14.96900000       8.34200000      10.02700000      -0.19282658       0.04888747       0.63588426      -1      -1      -1      -1      -1      -1      -1      -1      -1
S       14.74700000       6.70600000       9.41700000      -0.66701466       0.23629417       1.00419944      -1      -1      -1      -1      -1      -1      -1      -1      -1
C       16.27100000       5.99500000       9.82100000       1.14602408      -0.02687009       0.69386418      -1      -1      -1      -1      -1      -1      -1      -1      -1
O       13.68800000       6.10400000      10.20700000      -0.36736028      -0.11771797       0.69997724      -1      -1      -1      -1      -1      -1      -1      -1      -1
O       14.52700000       6.71500000       8.00200000       0.31861113       0.21784188      -1.63469981      -1      -1      -1      -1      -1      -1      -1      -1      -1
H       15.20500000       8.34900000      11.11500000      -0.21785062      -0.07441442      -0.54729946      -1      -1      -1      -1      -1      -1      -1      -1      -1
H       14.04500000       8.84800000       9.78900000      -0.66689279       0.35032620       0.16585931      -1      -1      -1      -1      -1      -1      -1      -1      -1