Created from lmp.config
12           atoms
1            atom types
  0.000000000000   3.573000000000 xlo xhi
  0.000000000000   3.492000000000 ylo yhi
  0.000000000000   9.243000000000 zlo zhi
  0.018000000000  -0.252000000000   0.036000000000 xy xz yz

Masses

1            107.868000000000 # 47

Atoms # atomic

1            1             -0.173727000000   1.777905036000   8.609751036000
2            1              1.600551045000   1.865240982000   7.067592000000
3            1             -0.095562000000   1.660688964000   5.321519856000
4            1              3.351860901000   3.466539072000   6.949134063000
5            1              1.586538009000   0.113490000000   5.299218036000
6            1              1.535283027000   3.506643036000   8.522216604000
7            1             -0.025308000000   1.735317027000   1.777014009000
8            1              3.494997099000   0.040842000000   0.201267000000
9            1              1.702548054000   3.442842081000   1.767150018000
10           1              1.813158063000   1.773306009000   0.159183000000
11           1              0.023544000000   3.429684018000   3.607956072000
12           1              1.776636027000   1.840140009000   3.467897991000
