LAMMPS (2 Aug 2023 - Update 4)
  using 1 OpenMP thread(s) per MPI task
variable        NSTEPS          equal 100
variable        THERMO_FREQ     equal 1
variable        DUMP_FREQ       equal 1
variable        restart         equal 0
variable        TEMP            equal 300.000000
variable        PRESS           equal 0.000000
variable        TAU_T           equal 0.050000
variable        TAU_P           equal 0.500000

units           metal
boundary        p p p
atom_style      atomic

neighbor        1.0 bin
neigh_modify    delay 10

if "${restart} > 0" then "read_restart lmps.restart.*" else "read_data ../../conf.lmp"
read_data ../../conf.lmp
Reading data file ...
  orthogonal box = (0 0 0) to (18.6206 18.6206 18.6206)
  1 by 1 by 1 MPI processor grid
  reading atoms ...
  648 atoms
  read_data CPU = 0.003 seconds

mass   1    15.999
mass   2    1.00784
pair_style   nep
pair_coeff       * * ../../nep.txt O H

compute    allPe   all   pe
compute    myVirial all pressure NULL virial
variable   N_total equal count(all)
variable   pe_peratom equal c_allPe/v_N_total
variable   W_xx  equal c_myVirial[1]/v_N_total
variable   W_yy  equal c_myVirial[2]/v_N_total
variable   W_zz  equal c_myVirial[3]/v_N_total
variable   W_xy  equal c_myVirial[4]/v_N_total
variable   W_xz  equal c_myVirial[5]/v_N_total
variable   W_yz  equal c_myVirial[6]/v_N_total

thermo_style    custom step temp v_pe_peratom v_W_xx v_W_yy v_W_zz v_W_xy v_W_xz v_W_yz
thermo          ${THERMO_FREQ}
thermo          1

if "${restart} == 0" then "velocity        all create ${TEMP} 35826"
velocity        all create ${TEMP} 35826
velocity        all create 300 35826
fix             1 all nvt temp ${TEMP} ${TEMP} ${TAU_T} #iso ${PRESS} ${PRESS} ${TAU_P}
fix             1 all nvt temp 300 ${TEMP} ${TAU_T} 
fix             1 all nvt temp 300 300 ${TAU_T} 
fix             1 all nvt temp 300 300 0.05 
timestep        0.000500
#run             ${NSTEPS}
dump            1 all custom ${DUMP_FREQ} water.dump id type x y z fx fy fz vx vy vz
dump            1 all custom 1 water.dump id type x y z fx fy fz vx vy vz
dump_modify     1 sort id

run             ${NSTEPS}
run             100
Neighbor list info ...
  update: every = 1 steps, delay = 10 steps, check = yes
  max neighbors/atom: 2000, page size: 100000
  master list distance cutoff = 7
  ghost atom cutoff = 7
  binsize = 3.5, bins = 6 6 6
  1 neighbor lists, perpetual/occasional/extra = 1 0 0
  (1) pair nep, perpetual
      attributes: full, newton on
      pair build: full/bin/atomonly
      stencil: full/bin/3d
      bin: standard
Per MPI rank memory allocation (min/avg/max) = 3.178 | 3.178 | 3.178 Mbytes
   Step          Temp       v_pe_peratom      v_W_xx         v_W_yy         v_W_zz         v_W_xy         v_W_xz         v_W_yz    
         0   300           -0.051848867   -67.216218     -69.211291     -68.974244      3.4217995      0.11079512     2.1915262    
         1   297.75573     -0.051558346   -65.181535     -67.594758     -68.209311      2.9505718      1.5984528      0.96491784   
         2   300.80106     -0.051973459   -56.873909     -59.67283      -61.012857      2.4404755      2.9812656     -0.48266623   
         3   306.94996     -0.052792337   -43.109696     -46.25147      -48.163004      1.9102201      4.1583553     -2.0111945    
         4   313.67528     -0.053670384   -25.314196     -28.738486     -31.003416      1.3829698      4.9773176     -3.4283983    
         5   320.02328     -0.054484435   -5.483457      -9.0793858     -11.378779      0.89573697     5.2487073     -4.516427     
         6   326.58924     -0.055330734    14.050278      10.459788      8.5708407      0.5139376      4.8016554     -5.0937261    
         7   333.5797      -0.056252487    30.996884      27.631382      26.709833      0.3349046      3.5663806     -5.0787673    
         8   339.24444     -0.057014983    43.484358      40.535356      41.187689      0.45737992     1.6473239     -4.5148979    
         9   340.83051     -0.057236029    50.246373      47.807351      50.574071      0.93680029    -0.66817839    -3.5363542    
        10   337.29065     -0.056765457    50.628022      48.666744      53.883112      1.7377267     -2.9735224     -2.3181823    
        11   330.75903     -0.055892804    44.562682      42.95658       50.630177      2.7230153     -4.8555472     -1.0448829    
        12   325.05701     -0.055140335    32.632553      31.217888      40.990014      3.6880079     -6.0078325      0.11645518   
        13   322.64773     -0.054841612    16.129455      14.730769      25.94435       4.4294267     -6.3053692      1.0320043    
        14   322.94673     -0.054911001   -3.0256744     -4.5822521      7.2604331      4.8135465     -5.8107562      1.6221641    
        15   323.34292     -0.05498823    -22.567833     -24.424337     -12.774891      4.8094574     -4.7163548      1.8673767    
        16   321.6864      -0.054780522   -40.267681     -42.499655     -31.766164      4.470553      -3.2548764      1.7927202    
        17   318.02055     -0.054296125   -54.246848     -56.849266     -47.596973      3.8956385     -1.6295685      1.4399411    
        18   314.38479     -0.053813931   -63.147479     -66.043654     -58.667216      3.1891192      0.017267497    0.8550373    
        19   313.1578      -0.053656762   -66.185725     -69.256348     -63.986444      2.434038       1.5946744      0.086630398  
        20   315.34294     -0.053958895   -63.145879     -66.257837     -63.172694      1.6851409      3.0326044     -0.80453407   
        21   320.05085     -0.054596357   -54.394639     -57.412963     -56.42642       0.97054612     4.2479016     -1.7337205    
        22   325.48344     -0.055321781   -40.891614     -43.679434     -44.510783      0.30356518     5.1174083     -2.5870836    
        23   330.52925     -0.05598466    -24.177077     -26.585158     -28.728135     -0.30316932     5.4828291     -3.233386     
        24   335.45609     -0.056628855   -6.2161477     -8.0894087     -10.816968     -0.81357352     5.1902022     -3.5534736    
        25   340.95808     -0.057359634    10.888403      9.6890634      7.2513738     -1.1539074      4.1589542     -3.4786339    
        26   346.61014     -0.058125406    25.230457      24.797486      23.520576     -1.2302719      2.4474835     -3.0122991    
        27   350.57031     -0.058675089    35.309463      35.700737      36.271339     -0.97311079     0.27564348    -2.2144648    
        28   350.93167     -0.058747787    40.11826       41.413316      44.162981     -0.38158944    -2.0101333     -1.178652     
        29   347.24369     -0.058283543    39.171572      41.517348      46.325018      0.45945901    -4.0068508     -0.003934653  
        30   340.72124     -0.057449054    32.574739      36.155187      42.456421      1.414686      -5.3575398      1.208374     
        31   333.19691     -0.05649091     21.093331      26.001148      32.901144      2.3503647     -5.8435902      2.3567948    
        32   325.98418     -0.055580572    6.1175495      12.208384      18.673059      3.1686936     -5.4473866      3.341578     
        33   319.57169     -0.054776031   -10.534114     -3.6844043      1.3783179      3.820176      -4.3374748      4.0747976    
        34   314.08111     -0.05408817    -26.901549     -19.911459     -16.987555      4.278702      -2.7853731      4.4969199    
        35   309.76672     -0.053550106   -41.164585     -34.680338     -34.310153      4.5322365     -1.0616962      4.5781053    
        36   307.03399     -0.053218055   -51.8172       -46.37654      -48.641295      4.5745695      0.63470519     4.316207     
        37   306.09428     -0.053122292   -57.770487     -53.747833     -58.428331      4.411985       2.1823384      3.7370093    
        38   306.70288     -0.053230493   -58.439211     -56.03868      -62.678362      4.0638215      3.501573       2.896218     
        39   308.30278     -0.053466048   -53.810424     -53.087855     -61.037369      3.5546877      4.5025332      1.882365     
        40   310.55638     -0.053780638   -44.48366      -45.36646      -53.811266      2.9003228      5.0614599      0.81547509   
        41   313.80316     -0.054219859   -31.636877     -33.931669     -41.91288       2.1113446      5.040181      -0.16980959   
        42   318.81386     -0.054892302   -16.862984     -20.274414     -26.756353      1.2036952      4.3440431     -0.94496728   
        43   325.84805     -0.055838589   -1.9206454     -6.0672039     -10.084227      0.22765172     2.9905609     -1.4184468    
        44   333.96369     -0.056933519    11.509469      7.1000449      6.2337274     -0.72744304     1.1405632     -1.5591723    
        45   341.39237     -0.057939114    21.989288      17.902327      20.408662     -1.5475889     -0.92704804    -1.3938037    
        46   346.54414     -0.05864517     28.417986      25.35925       30.932227     -2.1294374     -2.8855513     -0.98796729   
        47   348.58618     -0.058946177    30.130868      28.857184      36.770442     -2.4141466     -4.4368445     -0.41444021   
        48   347.32818     -0.05881949     27.007313      28.148634      37.497226     -2.3922896     -5.3679927      0.267272     
        49   343.0225      -0.058295733    19.516081      23.34638       33.298067     -2.0862206     -5.5873492      1.0130616    
        50   336.45473     -0.057474739    8.6519797      14.931262      24.877034     -1.5322927     -5.1300181      1.777251     
        51   328.98283     -0.056534768   -4.2324038      3.7578416      13.309592     -0.78510481    -4.1320595      2.5014554    
        52   322.16656     -0.055682008   -17.631275     -8.9636765     -0.074772041    0.07524614    -2.7886351      3.1154701    
        53   317.21443     -0.055075242   -30.076274     -21.778918     -13.79989       0.94652397    -1.30108        3.5463405    
        54   314.64343     -0.054781846   -40.259981     -33.183091     -26.360012      1.725667       0.16830241     3.7301312    
        55   314.22238     -0.054771141   -47.155155     -41.846816     -36.37104       2.3296961      1.5076374      3.6296387    
        56   315.15809     -0.054937394   -50.085921     -46.808487     -42.748017      2.7041989      2.6394732      3.2446686    
        57   316.55624     -0.055160119   -48.809926     -47.600799     -44.838729      2.8142408      3.4929119      2.6170638    
        58   318.00506     -0.055383512   -43.571695     -44.31559      -42.510616      2.6344871      3.9858691      1.8304689    
        59   319.84047     -0.055654417   -35.082028     -37.579267     -36.161432      2.1553526      4.0367826      0.99083247   
        60   322.76577     -0.056070706   -24.41741      -28.4191       -26.655004      1.4019674      3.6059823      0.20800463   
        61   327.12477     -0.056679956   -12.85526      -18.064907     -15.199085      0.45492638     2.7371454     -0.42385274   
        62   332.57173     -0.057433858   -1.7200884     -7.7437933     -3.2108501     -0.55491077     1.5671706     -0.84608837   
        63   338.41382     -0.058238624    7.7449869      1.474565       7.850509      -1.4796534      0.28673811    -1.0423764    
        64   344.03248     -0.059016026    14.493858      8.753332       16.675787     -2.2007184     -0.91677526    -1.0274148    
        65   348.75619     -0.059684288    17.814091      13.527155      22.303994     -2.6585725     -1.9119469     -0.83065679   
        66   351.44885     -0.060096006    17.450101      15.499758      24.26205      -2.8553438     -2.6354461     -0.47869587   
        67   350.66703     -0.060054893    13.646512      14.626721      22.578649     -2.8177659     -3.0658668      0.0069434518 
        68   345.66893     -0.059454538    7.0602745      11.086402      17.662553     -2.5668962     -3.1920411      0.60408217   
        69   337.39228     -0.058416784   -1.398711       5.2705362      10.158472     -2.1109243     -3.0010216      1.2879       
        70   328.24165     -0.057264624   -10.70951      -2.196617       0.85218043    -1.4711062     -2.4924541      2.0284932    
        71   320.69445     -0.056330113   -19.832564     -10.451153     -9.3487487     -0.69871232    -1.7073835      2.785687     
        72   315.94789     -0.055770004   -27.756697     -18.457667     -19.411143      0.12920942    -0.73929099     3.5010823    
        73   313.63037     -0.055529818   -33.590886     -25.181666     -28.251784      0.92052919     0.2851326      4.0888008    
        74   312.51924     -0.055442953   -36.675194     -29.791722     -34.866473      1.5675813      1.220837       4.4427499    
        75   311.56548     -0.055368334   -36.683693     -31.817424     -38.498902      1.9519855      1.9281807      4.4693912    
        76   310.56383     -0.055280229   -33.691029     -31.217286     -38.770547      1.9622918      2.3011145      4.1350768    
        77   310.07999     -0.055258598   -28.154848     -28.340719     -35.73921       1.5382089      2.288333       3.4976743    
        78   310.74059     -0.055390572   -20.831857     -23.791676     -29.880706      0.71592934     1.9111207      2.6981367    
        79   312.61781     -0.055683752   -12.650271     -18.27125      -22.018897     -0.35869291     1.2695034      1.9084883    
        80   315.39787     -0.056090491   -4.6251678     -12.462473     -13.233335     -1.4711345      0.52352117     1.2734383    
        81   319.05779     -0.056605516    2.2398904     -6.990007      -4.7285923     -2.4152357     -0.15685911     0.87173646   
        82   324.05713     -0.057295463    7.0745398     -2.3994307      2.3736676     -3.057877      -0.65469079     0.71580214   
        83   330.58256     -0.058194725    9.3057712      0.87758971     7.2619741     -3.3649735     -0.94546415     0.77801641   
        84   337.54189     -0.059164081    8.7920281      2.5707656      9.5882006     -3.3838634     -1.0956041      1.026423     
        85   342.49573     -0.059876516    5.8329932      2.6159602      9.4620226     -3.2021683     -1.2127881      1.4442658    
        86   343.00907     -0.059999725    1.0414382      1.135683       7.2883547     -2.8998622     -1.3747936      2.0227017    
        87   338.49629     -0.059451021   -4.8631667     -1.6117924      3.5580137     -2.525927      -1.5806267      2.7390794    
        88   330.85076     -0.058486305   -11.202976     -5.2867627     -1.268646      -2.1020668     -1.7573349      3.5494138    
        89   323.15733     -0.057522157   -17.345921     -9.4697921     -6.7412235     -1.6440269     -1.8125148      4.3974772    
        90   317.68075     -0.056859652   -22.680239     -13.664668     -12.349489     -1.1746992     -1.689657       5.2218774    
        91   314.83402     -0.056547469   -26.623492     -17.340748     -17.482426     -0.72203434    -1.3912439      5.9508266    
        92   313.62494     -0.056446687   -28.703761     -20.031527     -21.499901     -0.32337518    -0.97907979     6.493635     
        93   312.84984     -0.056394073   -28.661883     -21.434508     -23.882669     -0.030426589   -0.55848612     6.7590378    
        94   311.99576     -0.056323828   -26.534826     -21.461141     -24.350876      0.094440924   -0.2454389      6.6841073    
        95   311.26783     -0.056268599   -22.650907     -20.231188     -22.912327      0.0034742486  -0.12227082     6.2677194    
        96   311.01231     -0.056276835   -17.563348     -18.012778     -19.829361     -0.2939031     -0.19925322     5.586067     
        97   311.34399     -0.056360652   -11.966449     -15.166896     -15.578458     -0.71081       -0.39579772     4.7608458    
        98   312.3867      -0.056531627   -6.6049426     -12.101114     -10.794972     -1.100999      -0.57010525     3.9085722    
        99   314.66227     -0.056858535   -2.1871783     -9.2382075     -6.1870587     -1.316951      -0.58284209     3.1084467    
       100   318.90799     -0.057444334    0.71382973    -6.971806      -2.3956975     -1.2642963     -0.36272484     2.3909215    
Loop time of 16.1243 on 1 procs for 100 steps with 648 atoms

Performance: 0.268 ns/day, 89.580 hours/ns, 6.202 timesteps/s, 4.019 katom-step/s
50.0% CPU use with 1 MPI tasks x 1 OpenMP threads

MPI task timing breakdown:
Section |  min time  |  avg time  |  max time  |%varavg| %total
---------------------------------------------------------------
Pair    | 15.24      | 15.24      | 15.24      |   0.0 | 94.52
Neigh   | 0.013447   | 0.013447   | 0.013447   |   0.0 |  0.08
Comm    | 0.0031519  | 0.0031519  | 0.0031519  |   0.0 |  0.02
Output  | 0.86383    | 0.86383    | 0.86383    |   0.0 |  5.36
Modify  | 0.0026001  | 0.0026001  | 0.0026001  |   0.0 |  0.02
Other   |            | 0.001238   |            |       |  0.01

Nlocal:            648 ave         648 max         648 min
Histogram: 1 0 0 0 0 0 0 0 0 0
Nghost:           2860 ave        2860 max        2860 min
Histogram: 1 0 0 0 0 0 0 0 0 0
Neighs:              0 ave           0 max           0 min
Histogram: 1 0 0 0 0 0 0 0 0 0
FullNghs:        92678 ave       92678 max       92678 min
Histogram: 1 0 0 0 0 0 0 0 0 0

Total # of neighbors = 92678
Ave neighs/atom = 143.0216
Neighbor list builds = 5
Dangerous builds = 0
Total wall time: 0:00:16
