LAMMPS (2 Aug 2023 - Update 4)
  using 1 OpenMP thread(s) per MPI task
# ================= Initialization =================
units           metal
dimension       3
boundary        p p p
atom_style      atomic

# Kokkos full neighbor list requires newton off.
read_data       ../../model.data
Reading data file ...
  orthogonal box = (0 0 0) to (22.832 23.476 24.775)
  1 by 1 by 1 MPI processor grid
  reading atoms ...
  640 atoms
  read_data CPU = 0.012 seconds
mass    1 238.02891   # U

# ================= NEP potential =================
pair_style      nep
pair_coeff      * * ../../nep.txt U

neighbor        2.0 bin
neigh_modify    delay 0 every 1 check yes

# ================= MD settings =================
timestep        0.001      # units metal: 0.001 ps = 1 fs
variable        T equal 300.0

velocity        all create ${T} 12345 mom yes rot yes dist gaussian
velocity        all create 300 12345 mom yes rot yes dist gaussian

# ================= NPT =================
fix             1 all nvt temp ${T} ${T}  0.1
fix             1 all nvt temp 300 ${T}  0.1
fix             1 all nvt temp 300 300  0.1

compute    allPe   all   pe
compute    myVirial all pressure NULL virial
variable   N_total equal count(all)
variable   pe_peratom equal c_allPe/v_N_total
variable   W_xx  equal c_myVirial[1]/v_N_total
variable   W_yy  equal c_myVirial[2]/v_N_total
variable   W_zz  equal c_myVirial[3]/v_N_total
variable   W_xy  equal c_myVirial[4]/v_N_total
variable   W_xz  equal c_myVirial[5]/v_N_total
variable   W_yz  equal c_myVirial[6]/v_N_total

# ================= Output =================
thermo          1
thermo_style    custom step temp v_pe_peratom v_W_xx v_W_yy v_W_zz v_W_xy v_W_xz v_W_yz

dump            1 all custom 1 lammps.dump id type x y z fx fy fz vx vy vz
dump_modify     1 sort id


# ================= Run =================
run             500
Neighbor list info ...
  update: every = 1 steps, delay = 0 steps, check = yes
  max neighbors/atom: 2000, page size: 100000
  master list distance cutoff = 7.5
  ghost atom cutoff = 7.5
  binsize = 3.75, bins = 7 7 7
  1 neighbor lists, perpetual/occasional/extra = 1 0 0
  (1) pair nep, perpetual
      attributes: full, newton on
      pair build: full/bin/atomonly
      stencil: full/bin/3d
      bin: standard
Per MPI rank memory allocation (min/avg/max) = 3.141 | 3.141 | 3.141 Mbytes
   Step          Temp       v_pe_peratom      v_W_xx         v_W_yy         v_W_zz         v_W_xy         v_W_xz         v_W_yz    
         0   300           -8.3555553      111.91601      66.084961      130.49811     -1.0104698e-14  4.6012202e-15 -0.020895437  
         1   299.74403     -8.3555223      111.92981      66.078532      130.52477      0.0032133218  -0.00032845784 -0.018869449  
         2   299.35795     -8.3554725      111.94986      66.08748       130.54969      0.0064626025  -0.00069149617 -0.01756023   
         3   298.84255     -8.3554059      111.97614      66.111774      130.57282      0.009746253   -0.0010871465  -0.016965676  
         4   298.19889     -8.3553228      112.00961      66.151539      130.5949       0.01344132    -0.0022915466  -0.017451709  
         5   297.42856     -8.3552233      112.05356      66.2073        130.61845      0.017149413   -0.0034807724  -0.020257442  
         6   296.53349     -8.3551076      112.10804      66.278963      130.64354      0.01994394    -0.0027645004  -0.025421043  
         7   295.51576     -8.3549759      112.17291      66.366383      130.67007      0.022631958   -0.0017796958  -0.032902773  
         8   294.37761     -8.3548287      112.24795      66.469379      130.69785      0.026095485   -0.0023357759  -0.042625703  
         9   293.12148     -8.354666       112.33285      66.587722      130.72664      0.029933175   -0.0036534627  -0.054472891  
        10   291.75011     -8.3544883      112.42856      66.721383      130.75713      0.034675926   -0.0051409531  -0.068065875  
        11   290.26665     -8.3542959      112.53819      66.870692      130.79172      0.038243983   -0.0021040739  -0.084440196  
        12   288.67437     -8.3540893      112.65742      67.034669      130.82716      0.041943086    0.0016148628  -0.10249108   
        13   286.97652     -8.3538688      112.78559      67.212974      130.86289      0.045251716    0.0063325829  -0.1215587    
        14   285.17662     -8.3536347      112.92432      67.405628      130.90011      0.047826167    0.010988489   -0.14049061   
        15   283.27842     -8.3533876      113.07272      67.612212      130.9382       0.051230389    0.017053534   -0.15901077   
        16   281.28591     -8.353128       113.23281      67.832725      130.97859      0.055877707    0.02479313    -0.17615995   
        17   279.20323     -8.3528563      113.40191      68.066403      131.01936      0.060497539    0.032195232   -0.19368469   
        18   277.03447     -8.3525729      113.57994      68.312933      131.06048      0.066046386    0.039782034   -0.21135837   
        19   274.78393     -8.3522786      113.76933      68.572382      131.10373      0.072350182    0.048912902   -0.22848082   
        20   272.45628     -8.3519736      113.9728       68.844879      131.15123      0.078200365    0.058471859   -0.24431767   
        21   270.05625     -8.3516588      114.18671      69.12945       131.20035      0.084677414    0.068172371   -0.25942203   
        22   267.5885      -8.3513345      114.40937      69.425408      131.24973      0.09167186     0.077342499   -0.27320893   
        23   265.05775     -8.3510014      114.64102      69.732443      131.29949      0.099358131    0.087372975   -0.28552089   
        24   262.46873     -8.35066        114.87992      70.04987       131.34835      0.10701114     0.09805175    -0.29651189   
        25   259.82617     -8.3503109      115.12457      70.377011      131.3952       0.11545294     0.11046554    -0.30696638   
        26   257.1348      -8.3499547      115.37548      70.713538      131.44049      0.12373177     0.12243935    -0.3172858    
        27   254.39945     -8.349592       115.6326       71.059056      131.48413      0.13147663     0.13410191    -0.32658938   
        28   251.62489     -8.3492233      115.89398      71.412814      131.52467      0.13912336     0.14519821    -0.33533019   
        29   248.81597     -8.3488491      116.16123      71.774633      131.56322      0.1470767      0.15594075    -0.34270878   
        30   245.97753     -8.3484702      116.43288      72.143846      131.59867      0.15483417     0.16637026    -0.34876757   
        31   243.1144      -8.3480871      116.70855      72.519971      131.63076      0.16239349     0.1760995     -0.35376543   
        32   240.23134     -8.3477003      116.98795      72.902517      131.6593       0.16989966     0.18492028    -0.35797307   
        33   237.33315     -8.3473105      117.27082      73.291037      131.68416      0.17648868     0.19223394    -0.36067291   
        34   234.42457     -8.3469182      117.55649      73.684947      131.70485      0.1827327      0.19838781    -0.36240437   
        35   231.51042     -8.3465241      117.84849      74.084411      131.72395      0.18900455     0.20338292    -0.36165594   
        36   228.59552     -8.3461287      118.14414      74.488525      131.7394       0.19506528     0.20838443    -0.35862766   
        37   225.68447     -8.3457326      118.43961      74.896209      131.7484       0.20153812     0.21342883    -0.35476383   
        38   222.7817      -8.3453363      118.73598      75.307205      131.75178      0.20801357     0.21833292    -0.34991213   
        39   219.89162     -8.3449404      119.03336      75.721078      131.74963      0.21416502     0.22345029    -0.34342958   
        40   217.01861     -8.3445455      119.33191      76.137418      131.74206      0.21931339     0.22682084    -0.33508734   
        41   214.16692     -8.344152       119.63098      76.555709      131.72862      0.22381373     0.2286981     -0.32499851   
        42   211.3407      -8.3437606      119.93012      76.975468      131.70899      0.2278415      0.2303695     -0.31303528   
        43   208.54396     -8.3433717      120.22889      77.396205      131.68289      0.23155331     0.23273928    -0.29932677   
        44   205.78054     -8.3429858      120.52466      77.817065      131.64839      0.23551856     0.23581202    -0.28420899   
        45   203.0541      -8.3426034      120.81774      78.237679      131.60578      0.23889478     0.23789815    -0.26752786   
        46   200.36817     -8.3422249      121.1074       78.657541      131.55456      0.24200409     0.23957823    -0.24950892   
        47   197.72612     -8.3418509      121.39355      79.076221      131.49457      0.24493678     0.24124903    -0.22994372   
        48   195.13115     -8.3414817      121.67666      79.49341       131.42609      0.24740624     0.24278242    -0.20885384   
        49   192.58633     -8.3411178      121.95599      79.908663      131.34885      0.24985239     0.24440754    -0.18624552   
        50   190.09455     -8.3407595      122.23191      80.321672      131.26322      0.2525492      0.24687932    -0.16173502   
        51   187.65851     -8.3404073      122.50299      80.731855      131.16824      0.2551996      0.24933184    -0.13554196   
        52   185.28071     -8.3400614      122.76886      81.138803      131.06371      0.25790394     0.25163915    -0.10775379   
        53   182.96347     -8.3397223      123.02988      81.542248      130.95003      0.26030412     0.25328226    -0.078154791  
        54   180.70891     -8.3393903      123.28545      81.941743      130.82694      0.26271909     0.25512421    -0.046699416  
        55   178.51891     -8.3390656      123.53488      82.336847      130.69418      0.26523528     0.25737179    -0.01345442   
        56   176.3952      -8.3387486      123.77905      82.72741       130.55234      0.26754985     0.25926579     0.022011779  
        57   174.33933     -8.3384395      124.01764      83.11315       130.40131      0.26997357     0.26105634     0.059664801  
        58   172.35267     -8.3381386      124.25201      83.494009      130.24219      0.27287034     0.26356042     0.10011116   
        59   170.43642     -8.3378462      124.48033      83.869393      130.07372      0.27582621     0.26597307     0.14277531   
        60   168.59151     -8.3375623      124.70298      84.239087      129.89627      0.27851491     0.26809336     0.18781266   
        61   166.81871     -8.3372873      124.91957      84.602778      129.70984      0.2815896      0.27130386     0.23518528   
        62   165.1186      -8.3370213      125.12971      84.960191      129.5143       0.28423457     0.27363625     0.28485112   
        63   163.49155     -8.3367643      125.33271      85.310967      129.3093       0.28660002     0.27539093     0.33662672   
        64   161.93778     -8.3365167      125.52927      85.655001      129.09558      0.28832153     0.27590334     0.39073127   
        65   160.45732     -8.3362784      125.71879      85.99198       128.87284      0.28997446     0.27586539     0.44682515   
        66   159.05006     -8.3360495      125.90134      86.321773      128.64139      0.2919526      0.27671774     0.50520278   
        67   157.71578     -8.3358302      126.07652      86.644135      128.40112      0.29400978     0.27764891     0.5658391    
        68   156.45414     -8.3356204      126.24564      86.959146      128.15317      0.29615788     0.27814371     0.62869887   
        69   155.26469     -8.3354201      126.40759      87.266418      127.89686      0.29843657     0.27823933     0.69365195   
        70   154.14683     -8.3352295      126.56174      87.565742      127.63208      0.300276       0.27785473     0.76065124   
        71   153.09991     -8.3350484      126.70797      87.856925      127.35885      0.30180386     0.27731119     0.82953156   
        72   152.12315     -8.3348768      126.84597      88.139832      127.0774       0.30323223     0.27650341     0.9002645    
        73   151.21574     -8.3347147      126.97642      88.414477      126.78832      0.30459275     0.27561448     0.97303472   
        74   150.3768      -8.334562       127.09907      88.680744      126.49176      0.30597622     0.27461774     1.0476768    
        75   149.60542     -8.3344185      127.21427      88.938618      126.18825      0.30685823     0.27250065     1.124305     
        76   148.90065     -8.3342843      127.32167      89.187981      125.87787      0.30776604     0.2702428      1.2028749    
        77   148.26148     -8.3341591      127.42167      89.428873      125.56113      0.30868688     0.26778703     1.2835602    
        78   147.68689     -8.3340429      127.51447      89.661313      125.23849      0.30982205     0.26482351     1.3660897    
        79   147.1758      -8.3339354      127.5991       89.885093      124.90952      0.31090863     0.26223704     1.4499616    
        80   146.72707     -8.3338366      127.67668      90.100397      124.57523      0.31197068     0.25938079     1.5357937    
        81   146.33958     -8.3337462      127.74786      90.307389      124.23645      0.31301563     0.25534742     1.6233543    
        82   146.01215     -8.333664       127.81149      90.505834      123.89263      0.31403637     0.25101623     1.7124778    
        83   145.7435      -8.3335898      127.8671       90.695656      123.54369      0.31511782     0.24661571     1.8029219    
        84   145.53231     -8.3335234      127.9157       90.877054      123.19066      0.31626556     0.24243701     1.8944847    
        85   145.3772      -8.3334646      127.95627      91.049912      122.83305      0.317448       0.23842714     1.9871085    
        86   145.27673     -8.3334132      127.98924      91.214343      122.47134      0.3186519      0.23431603     2.0808843    
        87   145.22941     -8.3333688      128.01525      91.370558      122.10633      0.31941779     0.23029381     2.1755011    
        88   145.23371     -8.3333312      128.03403      91.518592      121.7381       0.31977813     0.2263059      2.2706251    
        89   145.28801     -8.3333002      128.04502      91.658389      121.36644      0.32012196     0.22217627     2.366335     
        90   145.39067     -8.3332754      128.05017      91.790485      120.99315      0.32061731     0.2189722      2.4627673    
        91   145.54003     -8.3332566      128.04759      91.914593      120.61701      0.32118781     0.21551574     2.5593997    
        92   145.73432     -8.3332436      128.0381       92.030956      120.23888      0.32188388     0.2123119      2.6561431    
        93   145.97181     -8.333236       128.02319      92.13998       119.86013      0.32306463     0.20795579     2.7528855    
        94   146.25076     -8.3332335      128.00331      92.241936      119.4814       0.32444119     0.20315923     2.8502046    
        95   146.56937     -8.3332359      127.97708      92.336668      119.10183      0.32588008     0.19814296     2.9475817    
        96   146.92575     -8.3332429      127.94433      92.424268      118.72146      0.32727753     0.19255927     3.0446394    
        97   147.31801     -8.3332541      127.90613      92.505104      118.34126      0.32818862     0.18779103     3.1408555    
        98   147.74425     -8.3332694      127.86286      92.579338      117.96158      0.32917531     0.18310286     3.2363077    
        99   148.20256     -8.3332884      127.81473      92.647185      117.58296      0.33082314     0.17847017     3.3311003    
       100   148.69104     -8.3333108      127.76122      92.708746      117.20524      0.33235193     0.17386098     3.4250133    
       101   149.20772     -8.3333363      127.70262      92.764261      116.82887      0.33378282     0.16988643     3.5180227    
       102   149.75061     -8.3333647      127.63886      92.813887      116.454        0.33496267     0.16597429     3.6098381    
       103   150.31777     -8.3333957      127.57063      92.857949      116.08124      0.33626897     0.16161836     3.7001326    
       104   150.90732     -8.333429       127.49938      92.896947      115.71183      0.33822541     0.1588529      3.7897282    
       105   151.51738     -8.3334643      127.42343      92.93075       115.34482      0.34017929     0.15598459     3.8777493    
       106   152.14606     -8.3335014      127.34438      92.959877      114.98158      0.34247846     0.15349408     3.9645631    
       107   152.79151     -8.3335401      127.26159      92.984377      114.62184      0.34489802     0.15181808     4.0498746    
       108   153.45189     -8.33358        127.17533      93.004505      114.26594      0.34775572     0.15093824     4.1336034    
       109   154.12538     -8.333621       127.08495      93.020305      113.91357      0.35078695     0.15024739     4.2154503    
       110   154.81017     -8.3336628      126.99153      93.0322        113.56567      0.35374163     0.14858807     4.2952484    
       111   155.50449     -8.3337051      126.89542      93.040458      113.22255      0.35673606     0.14700972     4.3725317    
       112   156.20663     -8.3337478      126.79732      93.045426      112.88476      0.35935875     0.14576668     4.4473951    
       113   156.91492     -8.3337907      126.69593      93.047044      112.55146      0.36205343     0.14466312     4.5198254    
       114   157.62773     -8.3338335      126.59261      93.045808      112.22393      0.3644169      0.14250754     4.5896435    
       115   158.34353     -8.333876       126.488        93.042076      111.90274      0.36674772     0.13974344     4.6570923    
       116   159.06082     -8.3339181      126.38133      93.035899      111.58741      0.36878064     0.13615481     4.7221007    
       117   159.77818     -8.3339596      126.27247      93.027383      111.2779       0.37055387     0.13306286     4.7839475    
       118   160.49419     -8.3340004      126.1614       93.016766      110.97429      0.37219779     0.12981732     4.8428261    
       119   161.20758     -8.3340402      126.05053      93.004735      110.67849      0.37275881     0.1269667      4.8984916    
       120   161.91714     -8.3340789      125.93815      92.991132      110.3892       0.37311466     0.12435606     4.951069     
       121   162.62162     -8.3341164      125.82379      92.976066      110.10617      0.37348637     0.1217745      5.0003501    
       122   163.31988     -8.3341526      125.70853      92.959956      109.83033      0.37348607     0.11945181     5.0460286    
       123   164.01086     -8.3341873      125.59283      92.94303       109.56199      0.37346566     0.11773367     5.0881897    
       124   164.69364     -8.3342205      125.47799      92.925758      109.3023       0.37364778     0.11749197     5.1271853    
       125   165.3674      -8.334252       125.36431      92.908398      109.0513       0.37398727     0.11816725     5.1626042    
       126   166.03135     -8.3342818      125.25169      92.891117      108.80907      0.37367963     0.11704021     5.194662     
       127   166.68481     -8.3343098      125.14063      92.874235      108.57596      0.37434287     0.11450193     5.2224064    
       128   167.32716     -8.334336       125.03133      92.857979      108.35214      0.3751495      0.11265653     5.2459754    
       129   167.95787     -8.3343602      124.92362      92.842441      108.13744      0.37513395     0.1114985      5.2657692    
       130   168.57653     -8.3343825      124.81811      92.827942      107.93266      0.374462       0.11086245     5.2809089    
       131   169.18274     -8.3344029      124.71337      92.814335      107.73649      0.37376026     0.11028988     5.2916947    
       132   169.77614     -8.3344212      124.60906      92.801687      107.54866      0.37258772     0.11016401     5.2982508    
       133   170.35639     -8.3344375      124.50637      92.790367      107.37007      0.37114667     0.11104913     5.3011198    
       134   170.92329     -8.3344517      124.40521      92.780501      107.20067      0.36971795     0.1123494      5.3000867    
       135   171.4766      -8.3344639      124.30619      92.772382      107.04085      0.36785319     0.11393153     5.2945258    
       136   172.01615     -8.334474       124.20874      92.765996      106.89024      0.3656071      0.11511113     5.2849904    
       137   172.5418      -8.334482       124.11345      92.761534      106.74924      0.36345793     0.11682632     5.2717452    
       138   173.05353     -8.334488       124.02006      92.759105      106.61767      0.36101538     0.11932976     5.2539899    
       139   173.55135     -8.3344919      123.92759      92.758559      106.49469      0.35838968     0.12186787     5.2322501    
       140   174.03534     -8.3344938      123.83564      92.759901      106.37989      0.3555172      0.12437529     5.2065276    
       141   174.50564     -8.3344937      123.74538      92.763422      106.27401      0.35197418     0.12756657     5.1765251    
       142   174.96247     -8.3344916      123.65611      92.769074      106.17646      0.34808907     0.13081562     5.142529     
       143   175.40601     -8.3344876      123.56849      92.776979      106.08745      0.34381533     0.13366379     5.1048405    
       144   175.83656     -8.3344817      123.48272      92.787324      106.00734      0.33953052     0.13652383     5.063174     
       145   176.25448     -8.3344739      123.39904      92.800199      105.93625      0.33521979     0.13982771     5.0175523    
       146   176.66017     -8.3344644      123.31777      92.815679      105.87424      0.33081799     0.14321755     4.9681129    
       147   177.05404     -8.3344531      123.23827      92.833667      105.82077      0.32652052     0.14637304     4.9148277    
       148   177.43654     -8.3344402      123.16056      92.85419       105.77577      0.32216149     0.14966956     4.8577591    
       149   177.80815     -8.3344257      123.08428      92.877185      105.73892      0.31772218     0.15293097     4.7968873    
       150   178.16935     -8.3344097      123.0105       92.902914      105.71127      0.31356113     0.15718109     4.7326332    
       151   178.52064     -8.3343922      122.93951      92.93142       105.6928       0.30941002     0.16085342     4.6650874    
       152   178.86259     -8.3343733      122.87164      92.962699      105.68345      0.30495014     0.1631532      4.5941855    
       153   179.19573     -8.3343531      122.80701      92.996784      105.68315      0.30037469     0.16540247     4.5202852    
       154   179.5207      -8.3343317      122.74552      93.033576      105.6916       0.29542805     0.16715299     4.4429624    
       155   179.83824     -8.3343092      122.68737      93.073055      105.70887      0.29068496     0.16796001     4.3621999    
       156   180.14906     -8.3342856      122.63343      93.115349      105.73563      0.28675608     0.16921456     4.2788877    
       157   180.45386     -8.3342611      122.58277      93.160139      105.77083      0.28243705     0.17126442     4.1926492    
       158   180.75345     -8.3342357      122.53529      93.207367      105.81429      0.27820291     0.17411927     4.1037409    
       159   181.04861     -8.3342097      122.49048      93.256845      105.86558      0.27427887     0.1765769      4.0117128    
       160   181.34006     -8.3341829      122.44974      93.308775      105.92558      0.27045336     0.17956128     3.9174079    
       161   181.62856     -8.3341556      122.41287      93.363026      105.99405      0.26581502     0.18242929     3.820976     
       162   181.91491     -8.3341279      122.37909      93.419296      106.07025      0.26122526     0.18433027     3.7218152    
       163   182.20002     -8.3340999      122.34766      93.4773        106.15352      0.25662759     0.18584693     3.6201953    
       164   182.48472     -8.3340716      122.31884      93.536956      106.24414      0.25159755     0.18595376     3.5166462    
       165   182.76985     -8.3340432      122.29368      93.598358      106.3426       0.24619341     0.18493649     3.4110287    
       166   183.05625     -8.3340149      122.27044      93.660994      106.44741      0.24065962     0.1841594      3.3033832    
       167   183.34479     -8.3339866      122.2496       93.724823      106.55872      0.23471485     0.18249393     3.1940121    
       168   183.63636     -8.3339586      122.23226      93.789888      106.67717      0.22797878     0.1801752      3.0832287    
       169   183.93186     -8.3339309      122.2177       93.855818      106.80212      0.22094599     0.17780126     2.9705726    
       170   184.23224     -8.3339036      122.20663      93.922625      106.9341       0.21373361     0.17662213     2.8561755    
       171   184.53849     -8.333877       122.19887      93.990129      107.07281      0.20618111     0.17554909     2.7404639    
       172   184.85157     -8.333851       122.1939       94.058056      107.21757      0.19879523     0.17346704     2.6233126    
       173   185.17239     -8.3338259      122.19061      94.125948      107.36752      0.19131638     0.17130269     2.5046727    
       174   185.50192     -8.3338017      122.1906       94.193963      107.5238       0.18340378     0.1680264      2.3846839    
       175   185.84112     -8.3337786      122.19339      94.261799      107.68582      0.17535733     0.16384802     2.2637631    
       176   186.19096     -8.3337567      122.19851      94.329154      107.85313      0.1667624      0.15944404     2.1422863    
       177   186.55241     -8.3337361      122.20631      94.395876      108.02572      0.15812163     0.15580177     2.0200766    
       178   186.92638     -8.333717       122.21631      94.461665      108.20316      0.14960973     0.15255465     1.8975239    
       179   187.31379     -8.3336994      122.22875      94.526356      108.38549      0.14132859     0.14883159     1.7743401    
       180   187.71555     -8.3336834      122.24436      94.589916      108.57319      0.13326526     0.14385715     1.6504326    
       181   188.13261     -8.3336693      122.26169      94.651771      108.76496      0.12541691     0.13890394     1.5263556    
       182   188.56588     -8.333657       122.28032      94.711583      108.9603       0.11751755     0.13370627     1.4019548    
       183   189.01631     -8.3336468      122.30051      94.769207      109.15939      0.11006616     0.12855506     1.2776532    
       184   189.48473     -8.3336386      122.32437      94.824919      109.36375      0.10353865     0.12391897     1.1544013    
       185   189.97198     -8.3336327      122.34958      94.877939      109.57151      0.097058284    0.11888603     1.0316291    
       186   190.47894     -8.3336292      122.37598      94.927996      109.7823       0.090466561    0.1135407      0.90956306   
       187   191.00644     -8.333628       122.40419      94.975013      109.99653      0.084587057    0.10919767     0.78853017   
       188   191.55531     -8.3336295      122.43464      95.018906      110.21443      0.078657792    0.10664718     0.66820697   
       189   192.12635     -8.3336335      122.46735      95.059468      110.43595      0.072979689    0.10552015     0.54894138   
       190   192.7203      -8.3336403      122.50202      95.096397      110.66081      0.067690895    0.1054876      0.43108325   
       191   193.3379      -8.3336499      122.53871      95.129575      110.88894      0.062632697    0.10579163     0.313725     
       192   193.97988     -8.3336625      122.57777      95.158808      111.1204       0.058492162    0.10666383     0.1973638    
       193   194.64689     -8.333678       122.61882      95.183821      111.35494      0.053475718    0.10650693     0.082775981  
       194   195.33955     -8.3336966      122.66056      95.204121      111.59142      0.047737475    0.10528889    -0.030063714  
       195   196.05849     -8.3337183      122.70275      95.219448      111.82949      0.041487592    0.10398905    -0.14157194   
       196   196.80427     -8.3337433      122.74612      95.229747      112.06958      0.034777967    0.10374725    -0.25167944   
       197   197.57743     -8.3337715      122.79089      95.234882      112.31191      0.028142314    0.10559611    -0.36009953   
       198   198.37846     -8.3338031      122.83605      95.234465      112.55554      0.021390541    0.10829314    -0.46678542   
       199   199.20777     -8.3338381      122.8832       95.228744      112.80186      0.015833946    0.11101448    -0.57143835   
       200   200.0657      -8.3338765      122.93171      95.217392      113.05015      0.010506626    0.1139885     -0.67445823   
       201   200.95267     -8.3339184      122.98014      95.199918      113.29927      0.0052800424   0.11755335    -0.77576186   
       202   201.86904     -8.3339639      123.02838      95.176143      113.54908      0.00024532517  0.12134304    -0.87506034   
       203   202.81502     -8.3340128      123.07656      95.145947      113.79966     -0.0045780284   0.12526167    -0.97203484   
       204   203.79082     -8.3340654      123.12394      95.109017      114.05033     -0.0094743669   0.12942824    -1.066925     
       205   204.79656     -8.3341215      123.17143      95.065442      114.3017      -0.014707486    0.1330109     -1.1591242    
       206   205.83231     -8.3341812      123.21931      95.015214      114.55395     -0.019822229    0.13763247    -1.2492372    
       207   206.8981      -8.3342446      123.26702      94.958007      114.80663     -0.024644994    0.14282272    -1.3372676    
       208   207.99388     -8.3343115      123.31488      94.893803      115.05997     -0.028631316    0.1481356     -1.4229243    
       209   209.11948     -8.334382       123.36378      94.822692      115.31458     -0.032229674    0.15107938    -1.506485     
       210   210.27463     -8.334456       123.4129       94.744385      115.56971     -0.035730467    0.15337765    -1.5873985    
       211   211.45905     -8.3345335      123.46061      94.658494      115.82436     -0.039287939    0.15547843    -1.665681     
       212   212.67235     -8.3346144      123.50875      94.565355      116.0797      -0.042897107    0.1580342     -1.7408609    
       213   213.91407     -8.3346988      123.55643      94.464747      116.33515     -0.046840742    0.16028678    -1.8129765    
       214   215.18365     -8.3347864      123.60446      94.356811      116.59128     -0.050510581    0.16168265    -1.8820868    
       215   216.48042     -8.3348773      123.65225      94.241325      116.84782     -0.053603321    0.16354835    -1.948056     
       216   217.80367     -8.3349713      123.69863      94.11802       117.10374     -0.056321295    0.1654511     -2.0113357    
       217   219.1526      -8.3350683      123.74601      93.987425      117.36077     -0.059031708    0.16668084    -2.0719039    
       218   220.52631     -8.3351683      123.79452      93.849588      117.6191      -0.06094734     0.16848492    -2.1295641    
       219   221.92371     -8.335271       123.84356      93.704427      117.87834     -0.062895985    0.17013725    -2.1840874    
       220   223.34371     -8.3353764      123.89145      93.551576      118.13719     -0.065225246    0.17112432    -2.2353681    
       221   224.78517     -8.3354843      123.93934      93.39128       118.39646     -0.068660481    0.17178774    -2.2839284    
       222   226.24683     -8.3355945      123.98743      93.223604      118.65639     -0.072254423    0.17167145    -2.3297865    
       223   227.72735     -8.335707       124.03404      93.048298      118.91579     -0.075554472    0.17162163    -2.372852     
       224   229.22536     -8.3358214      124.07938      92.865433      119.17462     -0.078910149    0.17166176    -2.4134637    
       225   230.73944     -8.3359377      124.12288      92.675022      119.43267     -0.082484584    0.171795      -2.4516706    
       226   232.26806     -8.3360556      124.16522      92.477262      119.69084     -0.085926962    0.17307963    -2.4871045    
       227   233.8096      -8.336175       124.20579      92.272157      119.94847     -0.089897623    0.17485343    -2.5202269    
       228   235.36235     -8.3362956      124.24574      92.060039      120.20643     -0.09424497     0.1760716     -2.5503672    
       229   236.92455     -8.3364172      124.28332      91.840693      120.46342     -0.098396976    0.17759341    -2.5777708    
       230   238.49438     -8.3365397      124.31879      91.614305      120.71966     -0.10258956     0.17949906    -2.6025873    
       231   240.06992     -8.3366627      124.35424      91.381448      120.97674     -0.10659799     0.18129693    -2.6248396    
       232   241.64912     -8.336786       124.38961      91.142259      121.23477     -0.11119992     0.18372529    -2.6444011    
       233   243.22997     -8.3369094      124.42243      90.896406      121.4919      -0.11598321     0.18597173    -2.6613944    
       234   244.81038     -8.3370325      124.45346      90.644196      121.74879     -0.12072724     0.18769526    -2.6757623    
       235   246.38801     -8.3371553      124.48686      90.386642      122.00851     -0.1268515      0.18829008    -2.6873199    
       236   247.96028     -8.3372772      124.52295      90.124111      122.27147     -0.1335862      0.18708031    -2.6953093    
       237   249.5247      -8.337398       124.55894      89.856185      122.53559     -0.14028159     0.18579586    -2.7013338    
       238   251.07893     -8.3375174      124.59405      89.582925      122.80031     -0.14726951     0.18471812    -2.7055855    
       239   252.62058     -8.3376351      124.63046      89.304995      123.06739     -0.15485223     0.1828114     -2.7077869    
       240   254.14717     -8.3377509      124.66732      89.022416      123.3362      -0.16262875     0.18070042    -2.706854     
       241   255.6561      -8.3378644      124.7048       88.73553       123.60704     -0.17071406     0.17889968    -2.7036718    
       242   257.1448      -8.3379752      124.74225      88.444459      123.87934     -0.17890182     0.17852233    -2.6982216    
       243   258.61069     -8.3380832      124.78058      88.149569      124.15375     -0.18711231     0.17696194    -2.6907727    
       244   260.05121     -8.3381879      124.8198       87.851155      124.43039     -0.19517782     0.1757578     -2.6804392    
       245   261.46382     -8.338289       124.8578       87.549102      124.70767     -0.203681       0.17469397    -2.6681216    
       246   262.84605     -8.3383864      124.89606      87.243981      124.98664     -0.21313162     0.17455046    -2.6540329    
       247   264.19532     -8.3384795      124.93582      86.936262      125.26826     -0.22283144     0.1758672     -2.6379066    
       248   265.50898     -8.3385682      124.9771       86.626289      125.55267     -0.23247964     0.17681343    -2.6197735    
       249   266.78446     -8.3386521      125.0199       86.314326      125.83985     -0.24180487     0.17854857    -2.5996471    
       250   268.0192      -8.3387309      125.06356      86.000529      126.12931     -0.25156612     0.18113538    -2.578539     
       251   269.21072     -8.3388043      125.10811      85.685267      126.4212      -0.26090142     0.18259264    -2.5556349    
       252   270.35664     -8.338872       125.1534       85.368783      126.71525     -0.27048021     0.18320379    -2.5306095    
       253   271.45467     -8.3389337      125.19952      85.051375      127.0117      -0.27949121     0.18278614    -2.5043306    
       254   272.50265     -8.3389892      125.24586      84.73325       127.31007     -0.28840926     0.18242905    -2.4771102    
       255   273.49844     -8.3390382      125.29244      84.414745      127.61036     -0.29671771     0.18143721    -2.4484031    
       256   274.43996     -8.3390805      125.3397       84.096251      127.91272     -0.30495079     0.17940488    -2.4181995    
       257   275.3252      -8.3391158      125.38714      83.777992      128.21674     -0.3131485      0.17683502    -2.3866319    
       258   276.15229     -8.3391439      125.4347       83.460217      128.52242     -0.32134188     0.1741802     -2.3536711    
       259   276.91938     -8.3391646      125.48465      83.143715      128.83128     -0.32930971     0.17255796    -2.3194449    
       260   277.62456     -8.3391776      125.53845      82.829005      129.1444      -0.33652607     0.170817      -2.284246     
       261   278.26615     -8.3391828      125.59262      82.515773      129.45897     -0.34415174     0.16825135    -2.2478363    
       262   278.84273     -8.3391799      125.64756      82.204365      129.77531     -0.35213445     0.16637444    -2.2102505    
       263   279.35298     -8.3391689      125.70412      81.89521       130.09389     -0.36024045     0.16335062    -2.1710452    
       264   279.79579     -8.3391495      125.76116      81.588462      130.41384     -0.36820291     0.16025395    -2.1309047    
       265   280.17017     -8.3391216      125.82045      81.284723      130.73634     -0.37512541     0.15582757    -2.0900759    
       266   280.47516     -8.3390852      125.88072      80.984101      131.06043     -0.38166151     0.14985912    -2.0489454    
       267   280.71004     -8.3390402      125.94177      80.68683       131.38571     -0.38857844     0.14446331    -2.0072716    
       268   280.87432     -8.3389865      126.00297      80.393088      131.71161     -0.39558965     0.13873774    -1.9645253    
       269   280.96766     -8.338924       126.065        80.103286      132.03852     -0.40222771     0.13173257    -1.9212145    
       270   280.98987     -8.3388528      126.12804      79.817681      132.36639     -0.40906038     0.12303957    -1.877366     
       271   280.94089     -8.3387728      126.19382      79.536935      132.6965      -0.41659212     0.11403303    -1.8328262    
       272   280.82072     -8.338684       126.26302      79.261427      133.02912     -0.42473873     0.10503537    -1.7872089    
       273   280.62944     -8.3385865      126.33529      78.991261      133.36351     -0.4331967      0.097286395   -1.7416973    
       274   280.36727     -8.3384802      126.40964      78.726579      133.69898     -0.44185067     0.089452743   -1.696414     
       275   280.03466     -8.3383653      126.48563      78.467588      134.03501     -0.45035211     0.080466183   -1.6507593    
       276   279.63232     -8.3382418      126.56263      78.214347      134.37093     -0.45869495     0.070820503   -1.6048194    
       277   279.16112     -8.3381098      126.64169      77.967255      134.70726     -0.46724614     0.060046989   -1.5591999    
       278   278.62213     -8.3379694      126.72162      77.726304      135.04296     -0.47556974     0.048633927   -1.5138386    
       279   278.01651     -8.3378209      126.80418      77.492036      135.37928     -0.48246518     0.034956224   -1.4695581    
       280   277.34556     -8.3376643      126.88944      77.264669      135.71604     -0.48827704     0.019191054   -1.4259808    
       281   276.61074     -8.3374998      126.97676      77.044227      136.05225     -0.49331925     0.0025516983  -1.3830878    
       282   275.81377     -8.3373276      127.06445      76.830637      136.38656     -0.49840965    -0.013753986   -1.3407958    
       283   274.95653     -8.3371481      127.15445      76.624392      136.72025     -0.50325575    -0.029231262   -1.2993333    
       284   274.04094     -8.3369613      127.24688      76.425725      137.05323     -0.50707894    -0.043279834   -1.2579678    
       285   273.06918     -8.3367676      127.34067      76.234952      137.38453     -0.50989343    -0.056577726   -1.2169239    
       286   272.04348     -8.3365672      127.43627      76.052123      137.7142      -0.51239075    -0.069258494   -1.1766382    
       287   270.96622     -8.3363605      127.53322      75.877273      138.04169     -0.51476344    -0.082189217   -1.1376752    
       288   269.83993     -8.3361477      127.63088      75.710226      138.36616     -0.51744769    -0.095023909   -1.0990445    
       289   268.66735     -8.3359293      127.72926      75.551086      138.68738     -0.52040499    -0.10830924    -1.0608007    
       290   267.45135     -8.3357054      127.82868      75.39998       139.00546     -0.52376221    -0.12197148    -1.0234882    
       291   266.19494     -8.3354765      127.92934      75.257068      139.32014     -0.52746215    -0.13523174    -0.98628649   
       292   264.90113     -8.3352431      128.03089      75.12238       139.63079     -0.53124102    -0.14800777    -0.94959987   
       293   263.57297     -8.3350053      128.1325       74.995833      139.93669     -0.53476532    -0.16092532    -0.91351847   
       294   262.21364     -8.3347638      128.23536      74.877731      140.23864     -0.53875489    -0.1756913     -0.87783535   
       295   260.82639     -8.3345187      128.34146      74.768435      140.53777     -0.54285684    -0.18883219    -0.84303672   
       296   259.4146      -8.3342706      128.44982      74.667797      140.83299     -0.54728449    -0.20213516    -0.80896458   
       297   257.9817      -8.33402        128.56021      74.575827      141.12395     -0.55212599    -0.21523487    -0.77576914   
       298   256.53107     -8.3337671      128.67054      74.492184      141.40884     -0.5572646     -0.22839253    -0.74357299   
       299   255.06623     -8.3335124      128.7799       74.416912      141.68684     -0.56216614    -0.24202472    -0.71225889   
       300   253.5907      -8.3332564      128.88949      74.350094      141.95853     -0.56731069    -0.25454921    -0.68151308   
       301   252.10808     -8.3329996      128.99992      74.291821      142.22417     -0.57227871    -0.26685755    -0.65140122   
       302   250.62196     -8.3327423      129.11291      74.242313      142.48477     -0.57703593    -0.27880673    -0.62204598   
       303   249.13589     -8.332485       129.22683      74.201331      142.73889     -0.5823781     -0.28983337    -0.59388935   
       304   247.6534      -8.3322281      129.3403       74.16875       142.98537     -0.58743445    -0.30046777    -0.56669331   
       305   246.17804     -8.3319721      129.45343      74.144545      143.22395     -0.59262318    -0.31051574    -0.54030042   
       306   244.71332     -8.3317175      129.56754      74.128718      143.45548     -0.59787264    -0.32070187    -0.51497978   
       307   243.2627      -8.3314646      129.68207      74.121107      143.67953     -0.6032336     -0.32913535    -0.49081813   
       308   241.82971     -8.3312138      129.796        74.121488      143.89496     -0.6083815     -0.3361589     -0.46641062   
       309   240.418       -8.3309657      129.90966      74.129892      144.10183     -0.61407936    -0.34366018    -0.44203114   
       310   239.0311      -8.3307208      130.02234      74.146089      144.29945     -0.61928405    -0.35164       -0.4182586    
       311   237.67243     -8.3304793      130.13485      74.170109      144.48812     -0.62483948    -0.35932186    -0.39519207   
       312   236.34544     -8.3302417      130.24531      74.201565      144.66631     -0.63039172    -0.36750981    -0.37221895   
       313   235.05365     -8.3300086      130.35555      74.240732      144.83533     -0.63583663    -0.3749405     -0.34823084   
       314   233.80056     -8.3297802      130.4639       74.287287      144.99367     -0.64111236    -0.38114338    -0.32394654   
       315   232.58954     -8.3295571      130.57024      74.341075      145.14104     -0.64643676    -0.38751014    -0.29949595   
       316   231.42383     -8.3293397      130.67476      74.401982      145.27757     -0.65124608    -0.39532868    -0.27518925   
       317   230.30657     -8.3291283      130.77651      74.46971       145.40228     -0.65548094    -0.40266776    -0.25071483   
       318   229.2409      -8.3289233      130.87695      74.544368      145.51624     -0.66025318    -0.41011204    -0.22624308   
       319   228.22991     -8.3287252      130.97447      74.625594      145.61813     -0.66480872    -0.41759266    -0.2014239    
       320   227.27656     -8.3285342      131.06846      74.713247      145.70743     -0.66885341    -0.42433301    -0.17615134   
       321   226.38361     -8.3283508      131.16141      74.807652      145.78616     -0.67314449    -0.43119145    -0.15019297   
       322   225.55371     -8.3281752      131.25187      74.908288      145.85294     -0.67747618    -0.43783422    -0.12375991   
       323   224.78944     -8.3280079      131.33889      75.014842      145.90684     -0.68165467    -0.44414237    -0.096904238  
       324   224.09332     -8.327849       131.42341      75.127378      145.94866     -0.684932      -0.44911858    -0.069123031  
       325   223.46776     -8.327699       131.50633      75.245846      145.97901     -0.68808029    -0.4513568     -0.040582928  
       326   222.91489     -8.327558       131.5878       75.37012       145.99779     -0.69101886    -0.45122173    -0.011308242  
       327   222.43676     -8.3274264      131.66899      75.500271      146.00575     -0.69432828    -0.45060721     0.018943071  
       328   222.03533     -8.3273043      131.74697      75.635623      146.00076     -0.69763319    -0.44833689     0.049603206  
       329   221.71238     -8.3271921      131.81931      75.775657      145.98101     -0.70085996    -0.44584575     0.080937797  
       330   221.46949     -8.3270898      131.88777      75.920477      145.94786     -0.70420308    -0.44386864     0.11285988   
       331   221.30809     -8.3269977      131.9532       76.070097      145.90188     -0.70824715    -0.44252296     0.14597677   
       332   221.22946     -8.326916       132.01532      76.224328      145.84287     -0.71235073    -0.4413862      0.17972847   
       333   221.23467     -8.3268446      132.0731       76.382888      145.77026     -0.71571624    -0.44110955     0.21408652   
       334   221.32457     -8.3267839      132.12829      76.545911      145.6854      -0.71880328    -0.44121907     0.24838401   
       335   221.49987     -8.3267337      132.17952      76.713029      145.5873      -0.72182925    -0.44031342     0.28336435   
       336   221.76115     -8.3266943      132.22517      76.883776      145.47485     -0.7246314     -0.43899294     0.31952479   
       337   222.10884     -8.3266657      132.26642      77.058205      145.34881     -0.72720183    -0.43723457     0.35696543   
       338   222.54325     -8.3266478      132.30341      77.236166      145.20928     -0.72951599    -0.43518575     0.395619     
       339   223.06446     -8.3266408      132.33569      77.417476      145.05602     -0.73124145    -0.43324984     0.43515196   
       340   223.6724      -8.3266445      132.36289      77.601915      144.88887     -0.7324887     -0.43076323     0.47614017   
       341   224.36687     -8.326659       132.38555      77.789504      144.70853     -0.73400224    -0.42902755     0.51851308   
       342   225.14754     -8.3266842      132.40559      77.980477      144.5164      -0.73673582    -0.42672966     0.56176865   
       343   226.01389     -8.32672        132.42129      78.17444       144.31127     -0.7398898     -0.42467095     0.60612367   
       344   226.96528     -8.3267664      132.4339       78.371389      144.09426     -0.7430972     -0.42257844     0.65231573   
       345   228.00084     -8.3268232      132.44296      78.571007      143.8653      -0.74529738    -0.42080717     0.69993099   
       346   229.11943     -8.3268903      132.44767      78.772957      143.62374     -0.74744947    -0.41890591     0.74922712   
       347   230.31976     -8.3269675      132.44865      78.977636      143.37054     -0.74927864    -0.41655043     0.80034958   
       348   231.60044     -8.3270547      132.44439      79.184251      143.10448     -0.75062622    -0.41391934     0.85316961   
       349   232.95991     -8.3271516      132.43456      79.392596      142.8255      -0.75177024    -0.41112742     0.90757952   
       350   234.39644     -8.3272581      132.41995      79.60268       142.53435     -0.75295805    -0.40924887     0.96324801   
       351   235.90817     -8.3273738      132.40222      79.814738      142.23261     -0.7545012     -0.40904305     1.020498     
       352   237.49306     -8.3274986      132.3813       80.028632      141.92041     -0.75546459    -0.40759011     1.0785421    
       353   239.14886     -8.3276321      132.35637      80.243973      141.59747     -0.75616087    -0.40640938     1.1374234    
       354   240.87314     -8.3277741      132.32656      80.460422      141.26305     -0.75710262    -0.40459213     1.1974235    
       355   242.66331     -8.3279242      132.29015      80.677599      140.9163      -0.75797866    -0.4028437      1.2585277    
       356   244.51664     -8.328082       132.24776      80.895479      140.55795     -0.75860546    -0.40080147     1.3207124    
       357   246.43037     -8.3282474      132.20038      81.114134      140.1891      -0.75949023    -0.39964465     1.3844212    
       358   248.40159     -8.3284197      132.14783      81.33336       139.80971     -0.76019644    -0.3983295      1.4494379    
       359   250.42719     -8.3285988      132.09025      81.553053      139.42024     -0.76096051    -0.39743047     1.5156865    
       360   252.50397     -8.3287842      132.0278       81.773302      139.02113     -0.76148278    -0.39764984     1.5826696    
       361   254.62859     -8.3289754      131.96047      81.993823      138.61267     -0.76195608    -0.3977838      1.6502841    
       362   256.79765     -8.3291721      131.88962      82.21477       138.1962      -0.76288939    -0.39855932     1.7186252    
       363   259.00769     -8.3293739      131.81619      82.436359      137.77282     -0.76372183    -0.39839428     1.7872493    
       364   261.25506     -8.3295802      131.73705      82.657691      137.34044     -0.76427863    -0.3978231      1.8564088    
       365   263.53607     -8.3297907      131.65441      82.879043      136.90107     -0.76504525    -0.39804954     1.9266802    
       366   265.84696     -8.3300049      131.56966      83.100491      136.45612     -0.76618801    -0.39683038     1.9972598    
       367   268.18385     -8.3302223      131.48273      83.322087      136.00564     -0.76694249    -0.39460336     2.068291     
       368   270.54289     -8.3304424      131.39283      83.543515      135.5494      -0.76798684    -0.3922044      2.1399431    
       369   272.92016     -8.3306649      131.29989      83.764565      135.08785     -0.76957584    -0.39112301     2.2118144    
       370   275.3116      -8.3308891      131.20484      83.98533       134.62199     -0.77142299    -0.39082027     2.2834548    
       371   277.7131      -8.3311146      131.10605      84.20559       134.15096     -0.77320919    -0.39085577     2.3543526    
       372   280.12048     -8.3313408      131.00311      84.425252      133.675       -0.77473924    -0.39128193     2.4242715    
       373   282.52954     -8.3315674      130.89811      84.644423      133.1957      -0.77600168    -0.38983102     2.4939659    
       374   284.9361      -8.3317938      130.78946      84.862562      132.71227     -0.77764129    -0.3882131      2.5628938    
       375   287.33597     -8.3320194      130.67994      85.080102      132.22708     -0.77902405    -0.38780098     2.6310516    
       376   289.725       -8.3322438      130.56886      85.296818      131.74002     -0.78020059    -0.38978222     2.6981398    
       377   292.09896     -8.3324665      130.45609      85.512576      131.25139     -0.78142039    -0.39216032     2.7637313    
       378   294.45362     -8.332687       130.34145      85.727246      130.76143     -0.78274032    -0.39479261     2.8287173    
       379   296.78474     -8.3329048      130.22577      85.940903      130.27121     -0.78417535    -0.39649828     2.8928984    
       380   299.08817     -8.3331194      130.109        86.153481      129.78084     -0.78621321    -0.39650077     2.9552666    
       381   301.35977     -8.3333303      129.99144      86.364854      129.29065     -0.78895294    -0.39720946     3.0161677    
       382   303.59535     -8.333537       129.87256      86.574926      128.80082     -0.79223514    -0.39691861     3.0752043    
       383   305.79081     -8.333739       129.75326      86.783782      128.3123      -0.79551058    -0.39524253     3.1327438    
       384   307.94216     -8.3339359      129.63442      86.991523      127.82599     -0.79902467    -0.39447532     3.1881802    
       385   310.04539     -8.3341272      129.51456      87.197762      127.34124     -0.8031607     -0.39383829     3.2417286    
       386   312.0966      -8.3343124      129.39377      87.402432      126.85845     -0.80761039    -0.39257096     3.2933174    
       387   314.092       -8.3344912      129.27332      87.605726      126.37881     -0.81269967    -0.39047616     3.3424621    
       388   316.02799     -8.334663       129.15296      87.807528      125.90241     -0.81751717    -0.38806226     3.3895693    
       389   317.90096     -8.3348274      129.03124      88.007513      125.4285      -0.82214965    -0.38675258     3.4339058    
       390   319.70743     -8.3349841      128.91066      88.206121      124.95919     -0.82728177    -0.38626395     3.474956     
       391   321.44418     -8.3351327      128.7915       88.403291      124.49501     -0.83236492    -0.38711329     3.512336     
       392   323.10809     -8.3352728      128.67496      88.599245      124.03712     -0.83758899    -0.38860752     3.5459219    
       393   324.69609     -8.3354041      128.55857      88.793457      123.58398     -0.84336083    -0.38887315     3.5759056    
       394   326.20518     -8.3355262      128.4435       88.986124      123.13672     -0.84983342    -0.387069       3.6023071    
       395   327.63254     -8.3356388      128.33014      89.177242      122.69595     -0.85605211    -0.38591521     3.6257437    
       396   328.9754      -8.3357415      128.21781      89.366641      122.26121     -0.86209241    -0.38560388     3.6458543    
       397   330.23115     -8.3358341      128.10605      89.554204      121.83237     -0.86802805    -0.38459988     3.6624513    
       398   331.39736     -8.3359164      127.99544      89.740039      121.4101      -0.87398033    -0.38352367     3.6762277    
       399   332.47181     -8.3359879      127.88746      89.924426      120.99577     -0.87958558    -0.38233793     3.6861406    
       400   333.45245     -8.3360486      127.78192      90.107318      120.58933     -0.88546704    -0.38031629     3.6918059    
       401   334.33745     -8.3360981      127.6791       90.288714      120.19121     -0.89182947    -0.37581567     3.6935913    
       402   335.12516     -8.3361364      127.57921      90.468702      119.80174     -0.89802937    -0.37042169     3.6909465    
       403   335.81402     -8.3361632      127.48149      90.647107      119.42038     -0.90417816    -0.36417199     3.6841807    
       404   336.40275     -8.3361783      127.38838      90.824416      119.04934     -0.91062656    -0.35588234     3.6725283    
       405   336.89028     -8.3361817      127.29773      91.000183      118.68717     -0.91713516    -0.34671821     3.6576645    
       406   337.27559     -8.3361732      127.20915      91.174318      118.3337      -0.92360387    -0.33776116     3.6395137    
       407   337.55785     -8.3361528      127.12283      91.346882      117.98907     -0.92914951    -0.32978015     3.6171875    
       408   337.73637     -8.3361203      127.0406       91.518317      117.65487     -0.9352539     -0.32280854     3.5910111    
       409   337.81072     -8.3360757      126.96324      91.688731      117.33169     -0.94030792    -0.31824634     3.5596138    
       410   337.78068     -8.336019       126.88952      91.857903      117.01892     -0.94502047    -0.3153399      3.5242737    
       411   337.64625     -8.3359502      126.82022      92.026002      116.71698     -0.95004062    -0.31055973     3.4843597    
       412   337.40761     -8.3358692      126.75544      92.193064      116.42602     -0.95438971    -0.30560865     3.4404756    
       413   337.06503     -8.3357762      126.69353      92.358743      116.14478     -0.95854897    -0.30118726     3.3929836    
       414   336.61896     -8.3356711      126.63517      92.523203      115.87394     -0.96199501    -0.2970479      3.3416156    
       415   336.07        -8.335554       126.57945      92.686311      115.61279     -0.96565019    -0.29235699     3.2864984    
       416   335.41885     -8.335425       126.52613      92.848064      115.36116     -0.96905167    -0.28792878     3.2277396    
       417   334.66639     -8.3352842      126.47652      93.008772      115.12002     -0.97232427    -0.28388683     3.1653801    
       418   333.81377     -8.3351317      126.43297      93.168893      114.89107     -0.97456281    -0.27970217     3.0992643    
       419   332.86242     -8.3349677      126.39378      93.328077      114.67295     -0.97683724    -0.27622186     3.0293874    
       420   331.81395     -8.3347923      126.35924      93.486423      114.46579     -0.97895663    -0.27297892     2.9556254    
       421   330.67018     -8.3346057      126.32996      93.64407       114.2702      -0.9804066     -0.2702323      2.8784057    
       422   329.43307     -8.3344082      126.30523      93.800955      114.08559     -0.98137697    -0.26905735     2.797826     
       423   328.10466     -8.3342         126.28448      93.956947      113.91144     -0.98264812    -0.26741851     2.7137121    
       424   326.6871      -8.3339813      126.26651      94.111874      113.74683     -0.98417651    -0.2660686      2.6265374    
       425   325.18278     -8.3337524      126.25483      94.266475      113.59411     -0.98667979    -0.26478106     2.5359274    
       426   323.59421     -8.3335135      126.24755      94.420411      113.452       -0.98954153    -0.26321786     2.4419615    
       427   321.924       -8.333265       126.24413      94.573549      113.32007     -0.99188638    -0.26216128     2.3441977    
       428   320.17495     -8.3330071      126.24497      94.726016      113.19855     -0.99393345    -0.26042525     2.2428824    
       429   318.35002     -8.3327402      126.24958      94.877729      113.08694     -0.99569259    -0.25756748     2.1384646    
       430   316.4522      -8.3324647      126.25819      95.028715      112.98512     -0.99807369    -0.25381144     2.031508     
       431   314.48461     -8.3321808      126.27276      95.179489      112.89481     -1.0004985     -0.25240052     1.922634     
       432   312.45046     -8.3318889      126.29353      95.330026      112.81597     -1.0030912     -0.25298927     1.8114113    
       433   310.35335     -8.3315895      126.32267      95.480795      112.75024     -1.0061596     -0.25439568     1.6966743    
       434   308.19689     -8.3312829      126.35569      95.630837      112.6938      -1.0092939     -0.25617181     1.5800781    
       435   305.98458     -8.3309695      126.39241      95.780076      112.64599     -1.011525      -0.25804252     1.4617811    
       436   303.72004     -8.3306498      126.43144      95.928316      112.60599     -1.0129231     -0.26041058     1.3413274    
       437   301.40695     -8.3303242      126.47239      96.075514      112.57355     -1.0137345     -0.26305209     1.2188956    
       438   299.04906     -8.329993       126.5166       96.221944      112.54962     -1.0144202     -0.26531429     1.0950461    
       439   296.65019     -8.3296568      126.56287      96.367338      112.53324     -1.0150023     -0.2665945      0.96959276   
       440   294.21425     -8.3293159      126.61197      96.511794      112.52467     -1.0155313     -0.2664751      0.84282083   
       441   291.74517     -8.3289709      126.66539      96.655658      112.52465     -1.0148628     -0.26383907     0.71569925   
       442   289.24691     -8.3286221      126.72237      96.798736      112.53246     -1.013878      -0.26095041     0.58697599   
       443   286.72351     -8.3282701      126.78191      96.940861      112.54729     -1.0128132     -0.25815478     0.45644298   
       444   284.17905     -8.3279153      126.84265      97.081724      112.56789     -1.0113616     -0.25571136     0.32513122   
       445   281.6176      -8.3275581      126.90465      97.221297      112.59408     -1.0094015     -0.25338164     0.19280498   
       446   279.04331     -8.3271991      126.96971      97.359959      112.62705     -1.0064708     -0.25102135     0.060501354  
       447   276.46035     -8.3268388      127.03649      97.497313      112.66563     -1.002617      -0.24860434    -0.072432605  
       448   273.8728      -8.3264776      127.1041       97.633189      112.70893     -0.99873923    -0.24552306    -0.20595426   
       449   271.28472     -8.326116       127.17296      97.767625      112.75713     -0.99438429    -0.24198514    -0.33929358   
       450   268.70021     -8.3257545      127.24308      97.900567      112.81011     -0.99026728    -0.23747243    -0.47317022   
       451   266.12341     -8.3253935      127.31443      98.03197       112.86767     -0.98633762    -0.23264799    -0.60728082   
       452   263.55842     -8.3250336      127.38706      98.161764      112.92947     -0.98181148    -0.22813798    -0.74139803   
       453   261.00938     -8.3246752      127.4621       98.290125      112.99638     -0.97666632    -0.22400405    -0.87612971   
       454   258.48046     -8.3243189      127.54036      98.417284      113.06892     -0.97225934    -0.2191049     -1.0113424    
       455   255.97566     -8.3239651      127.62197      98.543221      113.14699     -0.96728533    -0.21418777    -1.1457405    
       456   253.4989      -8.3236143      127.70515      98.667433      113.22877     -0.96167479    -0.20791256    -1.2794322    
       457   251.05407     -8.323267       127.78917      98.789661      113.31353     -0.95514473    -0.2013081     -1.4125247    
       458   248.64507     -8.3229235      127.87335      98.909743      113.40061     -0.94795263    -0.19521169    -1.5452352    
       459   246.27581     -8.3225845      127.95894      99.027929      113.49104     -0.94030505    -0.18913318    -1.6775622    
       460   243.95005     -8.3222503      128.04683      99.144254      113.58512     -0.93297878    -0.18137652    -1.8097818    
       461   241.6715      -8.3219215      128.13444      99.258071      113.68063     -0.92562523    -0.17345135    -1.9410717    
       462   239.4439      -8.3215984      128.22317      99.369704      113.77838     -0.91731893    -0.16717321    -2.0722247    
       463   237.27103     -8.3212815      128.31379      99.479203      113.87871     -0.90902413    -0.15975252    -2.2030795    
       464   235.15662     -8.3209713      128.40538      99.586299      113.98081     -0.9010239     -0.15063523    -2.3331444    
       465   233.10421     -8.3206682      128.49672      99.690605      114.08356     -0.89303271    -0.14060942    -2.4619548    
       466   231.11713     -8.3203727      128.58835      99.792202      114.18695     -0.88452947    -0.13020681    -2.5886145    
       467   229.19867     -8.320085       128.67926      99.890752      114.29036     -0.87585103    -0.11985611    -2.7139527    
       468   227.35201     -8.3198058      128.76898      99.986071      114.39314     -0.86695425    -0.1096292     -2.8375702    
       469   225.58026     -8.3195352      128.85809      100.07821      114.4956      -0.85802245    -0.099804944   -2.9588733    
       470   223.8865      -8.3192737      128.94676      100.16714      114.59782     -0.84871745    -0.089307676   -3.0785173    
       471   222.27374     -8.3190218      129.03508      100.2527       114.69961     -0.83905212    -0.079049555   -3.1966872    
       472   220.74478     -8.3187796      129.12329      100.33486      114.80111     -0.82918618    -0.069150528   -3.3128289    
       473   219.3023      -8.3185476      129.21013      100.41326      114.90126     -0.81925391    -0.060305509   -3.4268123    
       474   217.94889     -8.3183261      129.29638      100.488        115.00043     -0.8099363     -0.051330863   -3.5389819    
       475   216.68702     -8.3181154      129.38244      100.55901      115.09869     -0.80053044    -0.042549408   -3.6488972    
       476   215.51914     -8.3179159      129.46796      100.62613      115.1957      -0.79069111    -0.033778834   -3.7560056    
       477   214.44751     -8.3177277      129.55223      100.68914      115.29103     -0.78074622    -0.02493555    -3.8602752    
       478   213.47423     -8.3175512      129.63467      100.74775      115.38373     -0.77070725    -0.01563892    -3.961744     
       479   212.60133     -8.3173867      129.71515      100.80196      115.47399     -0.76055127    -0.0064130209  -4.0601471    
       480   211.83069     -8.3172343      129.79346      100.85159      115.56138     -0.75028151     0.0029657198  -4.155453     
       481   211.16399     -8.3170943      129.87138      100.89698      115.64713     -0.74002314     0.012154914   -4.2476763    
       482   210.60279     -8.3169668      129.94869      100.93789      115.73077     -0.73024401     0.021419826   -4.3368166    
       483   210.14852     -8.3168522      130.02499      100.9743       115.81242     -0.72058751     0.0303363     -4.422323     
       484   209.80251     -8.3167505      130.10012      101.00609      115.89203     -0.70998122     0.039875532   -4.5043493    
       485   209.56594     -8.3166619      130.1735       101.03299      115.96906     -0.69943187     0.048317441   -4.5830082    
       486   209.43982     -8.3165866      130.24358      101.05464      116.04237     -0.6889989      0.056656148   -4.6585248    
       487   209.42513     -8.3165246      130.312        101.07128      116.11321     -0.67826423     0.065018805   -4.7310997    
       488   209.52264     -8.3164761      130.37924      101.08292      116.18163     -0.66781288     0.072367974   -4.8004278    
       489   209.73296     -8.3164412      130.44473      101.08938      116.24715     -0.65770515     0.078476223   -4.8660253    
       490   210.05648     -8.3164199      130.50907      101.09085      116.31047     -0.64749611     0.083596186   -4.9278426    
       491   210.49345     -8.3164122      130.57032      101.08677      116.37013     -0.63748283     0.088516669   -4.9860449    
       492   211.04395     -8.3164182      130.63078      101.07772      116.42809     -0.62718355     0.093212362   -5.0404615    
       493   211.70787     -8.3164379      130.68863      101.06321      116.48298     -0.61702434     0.098650181   -5.0912438    
       494   212.48507     -8.3164713      130.74355      101.04313      116.53458     -0.60690656     0.10385142    -5.1384647    
       495   213.37528     -8.3165183      130.79679      101.01779      116.58414     -0.59721965     0.10968706    -5.1815823    
       496   214.37805     -8.3165788      130.84709      100.98681      116.63095     -0.58789401     0.11532053    -5.2210318    
       497   215.49271     -8.3166529      130.89491      100.95025      116.67526     -0.57870319     0.12132662    -5.2568004    
       498   216.7184      -8.3167404      130.94117      100.9084       116.71782     -0.57057255     0.12645366    -5.288327     
       499   218.05416     -8.3168413      130.98503      100.86096      116.75787     -0.56292626     0.13076335    -5.3156126    
       500   219.49881     -8.3169552      131.02656      100.80798      116.79557     -0.55571667     0.13502113    -5.3389682    
Loop time of 46.167 on 1 procs for 500 steps with 640 atoms

Performance: 0.936 ns/day, 25.648 hours/ns, 10.830 timesteps/s, 6.931 katom-step/s
37.0% CPU use with 1 MPI tasks x 1 OpenMP threads

MPI task timing breakdown:
Section |  min time  |  avg time  |  max time  |%varavg| %total
---------------------------------------------------------------
Pair    | 39.652     | 39.652     | 39.652     |   0.0 | 85.89
Neigh   | 0          | 0          | 0          |   0.0 |  0.00
Comm    | 0.011593   | 0.011593   | 0.011593   |   0.0 |  0.03
Output  | 6.4833     | 6.4833     | 6.4833     |   0.0 | 14.04
Modify  | 0.012734   | 0.012734   | 0.012734   |   0.0 |  0.03
Other   |            | 0.007052   |            |       |  0.02

Nlocal:            640 ave         640 max         640 min
Histogram: 1 0 0 0 0 0 0 0 0 0
Nghost:           2160 ave        2160 max        2160 min
Histogram: 1 0 0 0 0 0 0 0 0 0
Neighs:              0 ave           0 max           0 min
Histogram: 1 0 0 0 0 0 0 0 0 0
FullNghs:        47040 ave       47040 max       47040 min
Histogram: 1 0 0 0 0 0 0 0 0 0

Total # of neighbors = 47040
Ave neighs/atom = 73.5
Neighbor list builds = 0
Dangerous builds = 0

Total wall time: 0:00:46
