ITEM: TIMESTEP
0
ITEM: NUMBER OF ATOMS
96
ITEM: BOX BOUNDS xy xz yz pp pp pp
-1.7274452626000001e+00 1.0104840183100000e+01 0.0000000000000000e+00
0.0000000000000000e+00 1.0280700000000000e+01 -1.7274452626000001e+00
0.0000000000000000e+00 1.0275204583100001e+01 0.0000000000000000e+00
ITEM: ATOMS id type x y z fx fy fz
1 1 1.22366 2.7841 1.06666 0.0256988 0.0165113 -0.00180539
25 1 0.79179 4.92642 3.63547 0.0261284 -0.0161838 -0.00221701
33 2 0.1082 4.36821 1.69191 -0.0148316 -0.0189373 -0.0077974
57 2 -0.323644 3.34233 4.26071 -0.0155057 0.0180874 -0.00743435
65 2 1.82611 1.33361 2.48379 -0.0207445 0.0194536 -0.0131209
89 2 1.39425 1.23656 5.0526 -0.0208664 -0.0191735 -0.0131522
9 1 3.39691 0.21396 1.50213 -0.0257265 0.0149317 0.00210951
17 1 2.96503 2.35622 4.07094 -0.0252929 -0.0152379 0.00171154
29 1 5.84421 4.92642 3.63547 0.0261312 -0.0161864 -0.00221611
37 2 5.16062 4.36821 1.69191 -0.014835 -0.0189337 -0.00779692
41 2 4.51237 1.79803 0.876898 0.0148734 -0.0186 0.00736272
49 2 4.08052 0.772124 3.44569 0.0142058 0.0194212 0.00772834
61 2 4.72878 3.34233 4.26071 -0.0155034 0.0180884 -0.00743406
73 2 2.79445 3.90379 0.0850021 0.0210975 0.0193081 0.0133267
81 2 2.36259 3.80674 2.6538 0.0209657 -0.0195764 0.0132852
5 1 6.27608 2.7841 1.06666 0.0256992 0.0165074 -0.00180717
13 1 8.44933 0.21396 1.50213 -0.0257221 0.0149323 0.00211025
21 1 8.01745 2.35622 4.07094 -0.0252932 -0.0152389 0.00170952
45 2 9.56479 1.79803 0.876898 0.0148667 -0.0186043 0.00736359
53 2 9.13294 0.772124 3.44569 0.0142057 0.0194212 0.00772873
69 2 6.87853 1.33361 2.48379 -0.0207449 0.0194533 -0.0131215
77 2 7.84687 3.90379 0.0850021 0.0210977 0.0193072 0.0133253
85 2 7.41501 3.80674 2.6538 0.0209667 -0.0195764 0.0132847
93 2 6.44667 1.23656 5.0526 -0.0208642 -0.0191743 -0.0131511
2 1 0.359939 2.7841 6.20426 0.0257002 0.0165123 -0.00180076
18 1 2.10131 2.35622 9.20855 -0.0252946 -0.015237 0.00171092
26 1 -0.0719329 4.92642 8.77307 0.0261283 -0.0161847 -0.00221899
34 2 -0.755522 4.36821 6.82952 -0.0148299 -0.0189389 -0.00780012
58 2 -1.18737 3.34233 9.39831 -0.0155056 0.0180864 -0.00743376
66 2 0.96239 1.33361 7.6214 -0.0207457 0.0194529 -0.0131215
74 2 1.93072 3.90379 5.2226 0.0210964 0.0193066 0.0133254
82 2 1.49887 3.80674 7.79141 0.0209657 -0.0195774 0.0132853
90 2 0.53053 1.23656 10.1902 -0.0208661 -0.0191747 -0.0131524
6 1 5.41236 2.7841 6.20426 0.0256949 0.0165091 -0.00180288
10 1 2.53318 0.21396 6.63974 -0.0257225 0.0149343 0.00211052
30 1 4.98049 4.92642 8.77307 0.0261244 -0.0161878 -0.00221862
38 2 4.2969 4.36821 6.82952 -0.0148258 -0.0189408 -0.00779966
42 2 3.64864 1.79803 6.0145 0.0148708 -0.0186024 0.00736484
50 2 3.2168 0.772124 8.58329 0.0142047 0.0194229 0.00773372
62 2 3.86505 3.34233 9.39831 -0.015503 0.0180886 -0.00743447
70 2 6.01481 1.33361 7.6214 -0.0207434 0.0194529 -0.013122
94 2 5.58295 1.23656 10.1902 -0.0208679 -0.0191744 -0.0131502
14 1 7.5856 0.21396 6.63974 -0.025725 0.0149338 0.00210956
22 1 7.15373 2.35622 9.20855 -0.0252925 -0.0152351 0.00171105
46 2 8.70106 1.79803 6.0145 0.014867 -0.018604 0.00736437
54 2 8.26922 0.772124 8.58329 0.0142079 0.019422 0.00773406
78 2 6.98314 3.90379 5.2226 0.0210951 0.0193056 0.0133258
86 2 6.55129 3.80674 7.79141 0.0209636 -0.019577 0.0132858
3 1 1.22366 7.92445 1.06666 0.025701 0.0165088 -0.00180486
27 1 0.79179 10.0668 3.63547 0.0261255 -0.0161841 -0.00221824
35 2 0.1082 9.50856 1.69191 -0.014832 -0.0189364 -0.00779688
59 2 -0.323644 8.48268 4.26071 -0.0155029 0.0180908 -0.00743468
67 2 1.82611 6.47396 2.48379 -0.0207435 0.019457 -0.0131203
91 2 1.39425 6.37691 5.0526 -0.0208656 -0.0191765 -0.0131514
11 1 3.39691 5.35431 1.50213 -0.0257259 0.0149334 0.00210904
19 1 2.96503 7.49657 4.07094 -0.0252956 -0.0152486 0.00171235
31 1 5.84421 10.0668 3.63547 0.0261285 -0.0161852 -0.00221621
39 2 5.16062 9.50856 1.69191 -0.0148352 -0.0189329 -0.00779653
43 2 4.51237 6.93838 0.876898 0.0148747 -0.0185978 0.00736254
51 2 4.08052 5.91247 3.44569 0.0142015 0.0194262 0.00772858
63 2 4.72878 8.48268 4.26071 -0.0154989 0.0180924 -0.00743391
75 2 2.79445 9.04414 0.0850021 0.021096 0.0193031 0.0133249
83 2 2.36259 8.94709 2.6538 0.0209649 -0.0195734 0.0132845
7 1 6.27608 7.92445 1.06666 0.0257009 0.016506 -0.0018057
15 1 8.44933 5.35431 1.50213 -0.0257219 0.014933 0.00211048
23 1 8.01745 7.49657 4.07094 -0.0252927 -0.015249 0.00171003
47 2 9.56479 6.93838 0.876898 0.0148665 -0.0186013 0.00736177
55 2 9.13294 5.91247 3.44569 0.0142012 0.0194267 0.00772933
71 2 6.87853 6.47396 2.48379 -0.0207435 0.0194572 -0.01312
79 2 7.84687 9.04414 0.0850021 0.0210977 0.0193017 0.0133254
87 2 7.41501 8.94709 2.6538 0.020966 -0.0195732 0.0132835
95 2 6.44667 6.37691 5.0526 -0.0208637 -0.0191768 -0.0131516
4 1 0.359939 7.92445 6.20426 0.0257022 0.0165073 -0.00180074
20 1 2.10131 7.49657 9.20855 -0.0252957 -0.0152507 0.0017081
28 1 -0.0719329 10.0668 8.77307 0.0261272 -0.016184 -0.00221776
36 2 -0.755522 9.50856 6.82952 -0.0148315 -0.0189367 -0.00779956
60 2 -1.18737 8.48268 9.39831 -0.0155036 0.0180898 -0.0074344
68 2 0.96239 6.47396 7.6214 -0.0207449 0.0194592 -0.0131218
76 2 1.93072 9.04414 5.2226 0.0210953 0.0193027 0.0133252
84 2 1.49887 8.94709 7.79141 0.0209652 -0.0195739 0.0132846
92 2 0.53053 6.37691 10.1902 -0.0208663 -0.0191766 -0.0131514
8 1 5.41236 7.92445 6.20426 0.0256954 0.0165074 -0.00180274
12 1 2.53318 5.35431 6.63974 -0.025726 0.014935 0.00211117
32 1 4.98049 10.0668 8.77307 0.0261251 -0.0161876 -0.00221779
40 2 4.2969 9.50856 6.82952 -0.0148289 -0.0189378 -0.00779863
44 2 3.64864 6.93838 6.0145 0.0148727 -0.0185966 0.00736232
52 2 3.2168 5.91247 8.58329 0.0142023 0.0194302 0.00773621
64 2 3.86505 8.48268 9.39831 -0.0154999 0.0180927 -0.00743465
72 2 6.01481 6.47396 7.6214 -0.0207433 0.0194574 -0.0131193
96 2 5.58295 6.37691 10.1902 -0.020867 -0.0191759 -0.0131505
16 1 7.5856 5.35431 6.63974 -0.0257255 0.0149325 0.00211129
24 1 7.15373 7.49657 9.20855 -0.0252896 -0.0152501 0.00170958
48 2 8.70106 6.93838 6.0145 0.0148682 -0.0185981 0.00736163
56 2 8.26922 5.91247 8.58329 0.0142017 0.0194312 0.00773601
80 2 6.98314 9.04414 5.2226 0.0210944 0.0193024 0.0133261
88 2 6.55129 8.94709 7.79141 0.0209642 -0.0195733 0.0132848
ITEM: TIMESTEP
10
ITEM: NUMBER OF ATOMS
96
ITEM: BOX BOUNDS xy xz yz pp pp pp
-1.8319143755157605e+00 1.0182691558823693e+01 0.0000000000000000e+00
-7.9206263919065378e-02 1.0359906263919065e+01 -1.7540629997920658e+00
-7.9163925222156095e-02 1.0354368508322159e+01 0.0000000000000000e+00
ITEM: ATOMS id type x y z fx fy fz
1 1 1.15983 2.75029 0.982072 -0.138926 0.368569 0.553997
25 1 0.754917 4.92123 3.61938 -1.11839 0.545254 -0.480095
33 2 0.00601502 4.42179 1.63741 0.411532 -0.859825 0.0766784
57 2 -0.410592 3.39257 4.31848 -0.437161 -0.348949 -0.457022
65 2 1.85206 1.35425 2.49406 -0.132845 -0.677466 -0.528408
89 2 1.31326 1.09619 5.06032 0.448722 0.919947 0.122517
9 1 3.40456 0.157931 1.45866 -0.193841 -0.441813 0.488785
17 1 2.90971 2.34274 4.04235 0.497181 -0.607028 0.711081
29 1 5.8883 4.88505 3.6414 -1.13377 0.453781 -0.354599
37 2 5.14833 4.32508 1.67598 0.0803069 -0.0494978 -0.2158
41 2 4.57699 1.69566 0.797559 -0.427518 -0.0642753 -0.125134
49 2 4.12176 0.717532 3.47893 -0.562357 0.0563568 -0.459781
61 2 4.704 3.26606 4.2094 0.612609 0.499368 0.759634
73 2 2.7707 3.84793 0.0437614 -0.310331 0.140007 -0.0151867
81 2 2.35515 3.81651 2.65768 -0.690855 0.00963594 -0.416566
5 1 6.2784 2.755 0.979648 0.205837 -0.258121 0.278585
13 1 8.54706 0.114995 1.46829 -0.536325 0.674079 -0.692812
21 1 8.04614 2.27914 4.06014 0.837886 0.800802 0.128196
45 2 9.6695 1.77799 0.764925 -0.462975 -0.557052 0.370241
53 2 9.25166 0.7724 3.42211 0.138379 -0.302915 -0.428088
69 2 6.94149 1.2094 2.46379 0.0439281 0.711305 -0.367714
77 2 7.84837 3.86574 -0.0443447 0.266281 0.368176 0.769208
85 2 7.3878 3.7834 2.65616 0.627321 -0.103992 -0.475782
93 2 6.55709 1.21689 4.99886 -0.915358 -0.634998 0.979887
2 1 0.307042 2.78261 6.2055 -0.703048 -0.310642 0.379418
18 1 2.04195 2.31463 9.28725 0.123952 -0.252124 -0.0880935
26 1 -0.161731 4.92677 8.80515 -0.0273548 -0.131536 0.270063
34 2 -0.793234 4.38217 6.88872 -0.778425 -0.0429282 -0.123291
58 2 -1.29204 3.31135 9.51419 0.162183 0.448523 -0.550212
66 2 0.874255 1.28868 7.66886 0.0325228 -0.404452 0.244706
74 2 1.82699 3.97039 5.18728 0.794253 -0.79229 0.639246
82 2 1.37323 3.73671 7.89332 0.595305 0.552006 -0.611045
90 2 0.481175 1.10863 10.3612 -0.0631849 0.776743 -0.742104
6 1 5.39129 2.75697 6.23484 0.0201948 -0.0846912 -0.0904615
10 1 2.48598 0.14737 6.68068 -0.251452 -0.033993 -0.146473
30 1 4.9976 4.92946 8.85698 -0.699386 -0.291692 -0.693241
38 2 4.27842 4.35085 6.8582 0.0788607 0.0413585 0.0664662
42 2 3.591 1.8151 6.12899 -0.246318 -0.394344 -0.740254
50 2 3.14171 0.711734 8.63257 0.594366 -0.233619 0.00411785
62 2 3.77398 3.40103 9.47424 0.16764 -0.386935 0.348555
70 2 5.97122 1.2757 7.7135 0.592277 -0.329023 -0.935644
94 2 5.61633 1.12365 10.2659 0.159318 0.793163 0.0444367
14 1 7.64579 0.13648 6.67857 0.0258967 0.590828 -0.666688
22 1 7.2107 2.30475 9.24015 -0.348497 -0.50268 0.91096
46 2 8.7752 1.77434 6.04035 -0.129547 -0.319197 0.0592189
54 2 8.34782 0.665881 8.65186 -0.707819 0.397778 -0.355527
78 2 7.05839 3.88065 5.28135 -0.725238 -0.0418132 -0.378442
86 2 6.54712 3.72506 7.86092 -0.0114991 0.778065 -0.391082
3 1 1.17054 7.92904 0.992127 -0.188015 0.682037 -0.149714
27 1 0.701994 10.132 3.59156 1.03802 0.0396543 0.0641553
35 2 0.091878 9.64988 1.55644 0.0349215 -0.396223 0.510676
59 2 -0.345636 8.52248 4.15867 -0.501086 -0.137838 0.693582
67 2 1.76055 6.49639 2.4392 0.0664259 -0.27658 0.253234
91 2 1.24446 6.44064 5.11793 0.726539 -0.489158 -0.668131
11 1 3.3521 5.35675 1.45066 0.717378 -0.17691 0.493715
19 1 2.90368 7.51207 4.08266 0.378203 -0.0495817 -0.232055
31 1 5.86358 10.1242 3.60312 0.0312311 0.0965574 0.465917
39 2 5.23622 9.63842 1.67586 -0.629439 -0.704428 -0.239656
43 2 4.51297 6.94429 0.840326 0.359404 0.424894 -0.429445
51 2 4.05167 5.87288 3.3803 0.0886802 0.562945 0.556423
63 2 4.67679 8.47243 4.33812 0.390151 0.782328 -0.686259
75 2 2.69419 9.12993 -0.0504384 0.655921 -0.42645 0.769449
83 2 2.30999 8.95167 2.63068 0.156485 0.653636 -0.6311
7 1 6.28232 7.9847 1.02422 -0.124752 0.087521 -0.0939316
15 1 8.47506 5.37847 1.42375 0.499287 0.02466 0.951154
23 1 8.10738 7.54177 4.05315 -0.39479 -0.182703 0.0451488
47 2 9.62906 6.9594 0.749058 -0.00416455 -0.221747 0.286115
55 2 9.21013 5.96535 3.4099 -0.0237844 -0.232093 -0.375841
71 2 6.90593 6.56227 2.4993 0.109431 -0.581878 -0.441517
79 2 7.81385 9.14828 0.0155056 0.411242 -0.795777 -0.271751
87 2 7.52682 9.01869 2.64773 -0.181798 -0.0175929 -0.334673
95 2 6.43872 6.38107 5.05837 0.374926 0.105053 0.226444
4 1 0.284585 7.95793 6.2193 0.116853 0.409209 0.0488311
20 1 2.05964 7.51448 9.28423 0.0219406 0.0383062 -0.156718
28 1 -0.150667 10.1399 8.82701 0.147901 -0.283408 -0.0546923
36 2 -0.877088 9.63487 6.76299 0.488628 -0.722626 0.488512
60 2 -1.30752 8.49482 9.48244 -0.0159403 0.493892 -0.603749
68 2 0.854616 6.49312 7.72578 0.467372 0.0697017 -0.554152
76 2 1.95766 9.07585 5.17841 -0.78619 0.262763 0.694149
84 2 1.40358 8.97223 7.7931 -0.175956 0.260863 0.111466
92 2 0.520471 6.40338 10.3044 -0.549891 -0.258793 -0.24335
8 1 5.41076 7.97966 6.23391 -0.512271 -0.559513 -0.655199
12 1 2.49955 5.38814 6.6409 -0.174739 -0.322089 1.07362
32 1 4.98935 10.1234 8.79102 -0.957483 0.381755 0.895504
40 2 4.19661 9.49851 6.90035 0.462126 0.201337 0.0401362
44 2 3.5937 6.93272 6.06218 0.437092 0.174712 -0.427604
52 2 3.20449 5.93122 8.57398 0.0155789 0.269919 0.404183
64 2 3.79969 8.53089 9.45791 0.305381 0.163057 0.439957
72 2 6.09318 6.4491 7.67047 -0.910849 0.411663 0.0126704
96 2 5.58792 6.42119 10.3239 -0.114521 -0.297867 -0.71404
16 1 7.60219 5.39226 6.6528 0.921015 -0.597297 -0.140044
24 1 7.16974 7.52098 9.24547 0.629781 0.114593 0.64334
48 2 8.75966 6.98416 6.03902 -0.139537 0.102927 -0.44965
56 2 8.32842 5.96145 8.54735 0.16865 -0.050932 0.706171
80 2 6.96086 9.10035 5.18586 0.208898 0.184061 0.66922
88 2 6.53745 8.97552 7.79207 0.191411 0.315589 0.333054
ITEM: TIMESTEP
20
ITEM: NUMBER OF ATOMS
96
ITEM: BOX BOUNDS xy xz yz pp pp pp
-1.9019534963287990e+00 1.0234885377241296e+01 0.0000000000000000e+00
-1.3230843864749264e-01 1.0413008438647491e+01 -1.7719083021875022e+00
-1.3223771486120128e-01 1.0407442297961202e+01 0.0000000000000000e+00
ITEM: ATOMS id type x y z fx fy fz
1 1 1.11261 2.73555 0.929167 -0.457458 -0.124816 0.447572
25 1 0.717314 4.92611 3.60136 -1.53247 -0.331135 -0.64019
33 2 -8.70066e-06 4.31079 1.61883 -0.68268 0.266351 0.195939
57 2 -0.546729 3.37792 4.29898 0.598153 -0.0170208 0.330886
65 2 1.85621 1.26974 2.41792 -0.57687 0.230486 0.0313315
89 2 1.3295 1.16117 5.07732 -0.444071 0.00941363 -0.568148
9 1 3.41479 0.117641 1.44222 -0.898329 -0.595935 -0.0480937
17 1 2.87468 2.33009 4.03274 0.939235 -0.849323 0.552281
29 1 5.90773 4.85391 3.64751 -0.494825 0.710032 -0.645458
37 2 5.14188 4.28357 1.64708 -0.59024 0.42572 0.425441
41 2 4.56656 1.61034 0.710935 0.155831 0.443784 -0.203492
49 2 4.06823 0.697824 3.42314 0.622526 -0.078046 -0.254045
61 2 4.78061 3.29629 4.30696 -1.25597 -0.271222 -0.25926
73 2 2.70663 3.83242 0.016219 0.329492 0.204892 -0.304893
81 2 2.23908 3.82296 2.60233 0.549167 -0.344776 0.341507
5 1 6.28012 2.73251 0.919114 0.751263 -0.152347 0.472173
13 1 8.61685 0.0544643 1.43813 -0.72286 0.561795 -1.2247
21 1 8.0744 2.23118 4.05783 0.160387 0.596354 0.187882
45 2 9.67636 1.67278 0.737396 0.945486 0.518118 -0.510359
53 2 9.36454 0.736552 3.32863 -0.522953 0.0625267 0.205215
69 2 6.99982 1.23851 2.3944 -0.094146 -0.406471 0.475863
77 2 7.88643 3.90568 -0.00609572 -0.0788106 -0.242927 -0.490527
85 2 7.46719 3.75239 2.58967 -0.155816 0.156036 0.501385
93 2 6.49528 1.10525 5.11129 0.264209 0.25103 -1.04456
2 1 0.264372 2.78632 6.20859 -0.911315 -0.55719 0.340985
18 1 1.99977 2.28197 9.34354 0.29103 -0.409619 -0.214669
26 1 -0.225767 4.92616 8.8241 -0.00422188 0.0669074 0.148032
34 2 -0.954991 4.38717 6.90864 0.35234 -0.502266 -0.287008
58 2 -1.34414 3.3638 9.5056 -0.60159 -0.658371 0.267141
66 2 0.820574 1.1966 7.74393 0.371492 0.576068 -0.472907
74 2 1.88196 3.88833 5.25899 -0.513546 0.0863 -0.551577
82 2 1.38081 3.78169 7.86117 -0.225075 -0.0947949 0.0763144
90 2 0.442 1.14479 10.3503 -0.1013 -0.269466 -0.360984
6 1 5.36929 2.73983 6.25828 0.0500825 -0.242166 0.0194035
10 1 2.4469 0.10502 6.7114 0.0517861 -0.0301077 0.0352557
30 1 5.00153 4.92818 8.909 -0.766209 -0.225954 -0.652322
38 2 4.26704 4.34818 6.8968 -0.466163 0.114688 0.253369
42 2 3.50862 1.76641 6.08499 0.837938 -0.182193 -0.308608
50 2 3.19056 0.63952 8.66137 -0.373431 0.702838 -0.149345
62 2 3.72831 3.39103 9.59344 0.292266 -0.0194262 -0.203621
70 2 6.03689 1.18038 7.61704 -0.159477 0.450824 0.510126
94 2 5.67027 1.17884 10.3117 -0.302046 -0.410365 -0.562701
14 1 7.69191 0.0945221 6.69665 -0.441054 -0.0922011 -0.634712
22 1 7.2489 2.25871 9.2686 -0.630981 0.266142 0.695785
46 2 8.81078 1.70543 6.05956 0.388089 0.129511 -0.56041
54 2 8.29171 0.658195 8.63519 1.09407 -0.231416 0.108032
78 2 6.99126 3.85863 5.26239 0.455838 0.0681231 -0.0659092
86 2 6.54157 3.79744 7.8533 0.218917 -0.320548 0.529269
3 1 1.13378 7.93367 0.935375 -0.117917 0.993438 -0.241672
27 1 0.655426 10.1731 3.55657 1.414 -0.00717821 0.204519
35 2 0.088832 9.67819 1.54654 -0.677891 -0.579917 0.313622
59 2 -0.431024 8.53255 4.19933 0.343756 0.665222 -0.0170009
67 2 1.72856 6.47181 2.44976 0.219897 0.493125 -0.375344
91 2 1.26413 6.40426 5.05255 0.38766 0.0537636 0.0654763
11 1 3.3289 5.35393 1.42754 1.11731 0.0106635 0.406403
19 1 2.86163 7.51565 4.09461 1.12069 0.824105 -0.711832
31 1 5.87844 10.1582 3.58841 -0.382107 0.448777 0.668652
39 2 5.18709 9.60975 1.64567 -0.00418012 0.0382945 0.557303
43 2 4.56479 7.00658 0.739901 -1.07642 -1.18169 0.198927
51 2 4.04797 5.94088 3.42641 0.156187 -0.0204919 -0.413691
63 2 4.70273 8.60503 4.2837 -0.390693 -0.137973 0.0649369
75 2 2.72825 9.11769 -0.0191063 -0.326959 0.0412383 -0.459196
83 2 2.29819 9.05236 2.52025 -0.170576 -0.673313 1.14829
7 1 6.28193 8.03223 0.998997 0.53215 -0.265759 -0.853141
15 1 8.49305 5.40096 1.38176 0.629381 -0.496721 0.589593
23 1 8.1732 7.57024 4.04132 -0.968493 -0.6298 -0.16466
47 2 9.67977 6.93367 0.696612 0.476965 0.312352 -0.108851
55 2 9.26587 5.97199 3.31333 0.24087 0.0948565 0.240955
71 2 6.94609 6.52675 2.4366 -0.00692333 -0.0406405 -0.187624
79 2 7.86202 9.08843 -0.076907 0.438005 0.549517 0.401608
87 2 7.57835 9.06774 2.59627 -0.540479 0.0538004 0.339129
95 2 6.4972 6.39921 5.09758 -0.0254457 -0.00646998 -0.505128
4 1 0.235292 7.98564 6.23008 -0.0498331 0.459662 0.274174
20 1 2.03441 7.52247 9.33663 0.462302 0.740435 0.00242223
28 1 -0.200439 10.182 8.86187 -0.0970731 -0.243142 0.149555
36 2 -0.883743 9.60157 6.79722 -0.587204 0.350526 0.607339
60 2 -1.39349 8.58879 9.4378 0.210916 -0.0852322 0.690324
68 2 0.862822 6.51566 7.69803 0.128639 -0.122568 -0.3356
76 2 1.84054 9.13397 5.26175 -0.165171 -0.12442 -0.452883
84 2 1.30472 9.03009 7.82352 0.537431 -0.0430675 0.803454
92 2 0.427382 6.37412 10.3429 0.211846 0.187297 0.0452471
8 1 5.39876 8.01103 6.24574 0.229396 0.112603 -0.477289
12 1 2.47643 5.41414 6.656 0.557297 -0.620054 1.17673
32 1 4.98076 10.1619 8.80832 -0.258105 0.196357 1.0719
40 2 4.18929 9.51134 6.96359 -0.104903 0.225059 -0.249793
44 2 3.62702 6.95132 6.01218 -0.223785 0.0295719 -0.413475
52 2 3.20345 5.99632 8.62394 -0.016009 -0.159319 -0.160266
64 2 3.79491 8.60042 9.57586 -0.228156 0.188328 -0.189693
72 2 6.00294 6.50137 7.70311 0.47358 0.120694 -0.151172
96 2 5.57353 6.40051 10.2966 0.276483 0.163335 0.260038
16 1 7.62224 5.41735 6.65689 0.145415 -0.487762 0.397051
24 1 7.18606 7.53641 9.27433 0.120945 0.388113 0.539376
48 2 8.77935 7.02889 5.97587 0.285283 -0.480414 0.212358
56 2 8.39408 5.99765 8.62332 -0.356429 0.0268672 -0.355646
80 2 6.97723 9.16706 5.26803 0.253682 -0.388176 -0.566079
88 2 6.5566 9.03963 7.84488 0.0889675 -0.211729 0.0279562
ITEM: TIMESTEP
30
ITEM: NUMBER OF ATOMS
96
ITEM: BOX BOUNDS xy xz yz pp pp pp
-1.8011307582357541e+00 1.0159751314687302e+01 0.0000000000000000e+00
-5.5866778719931176e-02 1.0336566778719931e+01 -1.7462196266484542e+00
-5.5836915846792401e-02 1.0331041498946794e+01 0.0000000000000000e+00
ITEM: ATOMS id type x y z fx fy fz
1 1 1.15444 2.77892 0.989214 0.487393 0.208709 0.391621
25 1 0.755615 4.92951 3.6078 -0.506257 -0.901212 -0.271956
33 2 -0.0147116 4.26033 1.72335 -0.0738202 0.299376 -0.271968
57 2 -0.437405 3.40814 4.34193 -0.0361953 0.347939 -0.435333
65 2 1.8262 1.29879 2.39473 0.101819 -0.17584 -0.0395459
89 2 1.35297 1.31122 4.99108 -0.22106 -1.29975 0.154609
9 1 3.4473 0.188442 1.51654 -1.236 -0.570105 -0.629594
17 1 2.91166 2.36965 4.06083 0.114053 -0.898598 -0.234153
29 1 5.89221 4.8441 3.67688 -1.01841 0.892186 -0.802902
37 2 5.05781 4.30945 1.77913 1.15267 -1.17284 -0.191938
41 2 4.58036 1.67655 0.709541 -0.159322 -0.489658 0.629
49 2 4.14225 0.786038 3.34885 -0.204553 0.533193 0.223224
61 2 4.64697 3.35403 4.37815 0.627075 0.704912 -0.512093
73 2 2.75021 3.8882 0.0432034 -0.107893 -0.136206 -0.214711
81 2 2.28295 3.79839 2.6598 0.143644 0.1597 -0.284211
5 1 6.26678 2.76671 0.973079 0.845976 0.261142 1.1447
13 1 8.5848 0.131753 1.47374 -0.947513 0.773897 -0.82798
21 1 8.03395 2.26758 4.08568 0.316932 0.649731 -0.394774
45 2 9.71535 1.71094 0.727784 -0.885008 -0.855336 0.0419602
53 2 9.27354 0.812392 3.31318 0.035149 -0.0880355 0.330928
69 2 6.98126 1.29485 2.45536 -0.449156 -0.282197 -0.673372
77 2 7.84583 3.92411 0.0763178 0.0370375 -0.422807 -0.238674
85 2 7.46175 3.78884 2.66792 -0.4588 0.155532 -0.109304
93 2 6.4356 1.14017 5.04352 0.461703 0.646588 -0.0237665
2 1 0.321838 2.83661 6.19224 0.121079 -0.760341 0.0404256
18 1 2.03791 2.31288 9.28992 0.0727165 0.650349 -1.18316
26 1 -0.160665 4.93057 8.75614 0.136999 -0.377 0.363011
34 2 -0.919785 4.32183 6.83754 0.160992 0.395884 0.456579
58 2 -1.32594 3.36951 9.42758 0.884218 0.725224 0.123789
66 2 0.943002 1.30671 7.6502 -0.158695 0.0827858 -0.468317
74 2 1.92988 3.85919 5.23794 -0.194046 0.82747 0.045619
82 2 1.44275 3.85309 7.77912 -0.255059 -0.199636 0.660624
90 2 0.487985 1.23515 10.1459 -0.0780906 -0.458461 0.963768
6 1 5.3397 2.77724 6.25469 0.368268 -0.0141 -0.133241
10 1 2.47139 0.187239 6.70274 -0.101749 0.336348 -0.791944
30 1 4.99012 4.92649 8.85468 -0.406104 -0.168479 -0.35916
38 2 4.21231 4.36511 6.94198 0.819751 -0.842912 -0.167899
42 2 3.62528 1.73183 5.96023 0.042168 -0.679877 0.706832
50 2 3.23648 0.807545 8.56999 0.295038 -0.154432 -0.148315
62 2 3.78095 3.42393 9.55898 -0.0586082 0.269759 -0.507358
70 2 6.05893 1.26777 7.55279 -0.155236 0.120361 0.618362
94 2 5.64166 1.25227 10.1393 -0.412577 -0.663179 0.629143
14 1 7.66587 0.17618 6.66191 -0.556744 -0.202092 -0.708124
22 1 7.22105 2.28715 9.20877 -0.630147 0.341937 -0.136347
46 2 8.81133 1.71831 5.95215 -0.445427 -0.562699 0.226659
54 2 8.34759 0.737564 8.54763 -0.288321 0.466932 0.112257
78 2 6.9498 3.87337 5.23388 0.211143 -0.213383 0.60367
86 2 6.53936 3.85256 7.86648 -0.0524622 -0.320936 -0.240638
3 1 1.19232 7.8893 0.977255 0.535034 0.771677 0.339823
27 1 0.747166 10.092 3.56531 1.10721 0.830028 0.77187
35 2 0.066139 9.4726 1.69427 -0.190898 -0.0183963 -0.19272
59 2 -0.356804 8.56881 4.27759 -0.716646 -0.433568 -0.0460738
67 2 1.81338 6.4951 2.4556 -0.25 -0.364728 -0.148601
91 2 1.43946 6.33593 5.00278 -1.19153 0.371523 0.631838
11 1 3.36898 5.34618 1.50509 -0.216255 -0.139191 0.20993
19 1 2.89567 7.47816 4.11424 1.06777 1.02644 -2.05239
31 1 5.86719 10.0788 3.6262 0.163977 0.585737 0.66289
39 2 5.11715 9.45376 1.78297 -0.0525076 0.0787636 -0.658005
43 2 4.47024 6.83152 0.779223 1.50911 1.14209 0.042969
51 2 4.11396 5.99055 3.43981 0.156915 -0.285683 -0.289286
63 2 4.6616 8.62787 4.26996 -0.0642888 -0.507943 0.905469
75 2 2.77228 9.02422 0.0774053 -0.0833477 0.668277 0.212804
83 2 2.32768 8.95624 2.68028 -0.00583889 0.500075 -0.207315
7 1 6.26009 8.00264 1.05969 0.369427 -0.984331 -0.44211
15 1 8.44144 5.40709 1.44429 1.04396 -0.845015 -0.0111763
23 1 8.14349 7.5275 4.05248 -1.16334 -0.149803 -0.431534
47 2 9.68691 6.90246 0.739039 -0.746484 -0.533809 -0.0247031
55 2 9.25683 5.98817 3.31361 -0.254049 0.499214 0.481147
71 2 6.9284 6.45204 2.40084 -0.397883 0.614851 0.383569
79 2 7.92013 9.03365 0.0456652 -0.636924 0.437389 0.266284
87 2 7.46107 9.02103 2.65646 0.139614 -0.361347 -0.237064
95 2 6.51846 6.39021 5.03628 -0.265312 0.0817488 -0.189812
4 1 0.303293 7.95387 6.22034 -0.0225833 0.494891 0.445355
20 1 2.09027 7.48544 9.28593 -0.531044 0.349042 0.0315388
28 1 -0.122458 10.0961 8.80926 0.229026 0.066636 0.684842
36 2 -0.83999 9.49639 6.91131 0.20454 -0.306273 -0.518782
60 2 -1.28866 8.57738 9.42519 -0.175338 -0.460178 0.522626
68 2 0.988535 6.48974 7.54868 -0.824341 0.144635 0.911706
76 2 1.77619 9.09063 5.28143 1.00382 0.37035 0.19572
84 2 1.41502 8.9851 7.92452 0.53189 -0.0115877 -0.861446
92 2 0.467948 6.34368 10.231 -0.110321 0.174933 -0.656341
8 1 5.38158 7.97341 6.21823 0.594071 0.40351 -0.897874
12 1 2.52685 5.42006 6.65623 0.172366 -1.12335 -0.304187
32 1 4.96754 10.0827 8.75811 0.302494 0.713594 0.982385
40 2 4.19239 9.46563 6.93247 0.0174467 -0.0397927 -0.0800365
44 2 3.67825 6.93093 5.89184 0.22729 -0.27887 1.50947
52 2 3.25177 6.01703 8.56603 0.108554 0.0271382 -0.0375311
64 2 3.7866 8.62241 9.56701 0.0922774 -0.119258 0.00414996
72 2 5.96601 6.54333 7.63695 0.437589 -0.512711 -0.176921
96 2 5.59817 6.3929 10.1908 -0.0542058 0.500678 0.477951
16 1 7.5834 5.42449 6.63062 -0.173011 -0.911128 0.167688
24 1 7.15401 7.50163 9.21337 0.289752 0.758623 0.593621
48 2 8.77455 6.93301 5.93153 0.409486 -0.179629 0.373828
56 2 8.32322 6.00346 8.54525 0.197852 -0.223475 -0.473031
80 2 7.00562 9.05599 5.25198 0.0623932 -0.0756924 -0.040134
88 2 6.55576 8.98503 7.83704 -0.186281 0.31407 -0.298397
ITEM: TIMESTEP
40
ITEM: NUMBER OF ATOMS
96
ITEM: BOX BOUNDS xy xz yz pp pp pp
-1.8002228185517151e+00 1.0159074709406525e+01 0.0000000000000000e+00
-5.5178398123698180e-02 1.0335878398123697e+01 -1.7459882922451886e+00
-5.5148903215617828e-02 1.0330353486315621e+01 0.0000000000000000e+00
ITEM: ATOMS id type x y z fx fy fz
1 1 1.14527 2.79039 0.995097 0.24255 -0.204101 -0.456985
25 1 0.717139 4.91468 3.58589 0.15273 0.328105 0.420947
33 2 -0.105621 4.243 1.73065 0.981497 -0.38319 -0.0466532
57 2 -0.4179 3.45692 4.30792 -0.657198 -0.653081 0.184839
65 2 1.75639 1.25127 2.3393 0.326613 0.138266 0.550855
89 2 1.29307 1.19389 4.92991 0.970724 1.08698 0.711867
9 1 3.43144 0.1754 1.52544 -0.689477 0.156098 -0.904414
17 1 2.9221 2.34811 4.07152 0.0867562 -0.894765 -0.204758
29 1 5.87139 4.84869 3.66951 0.206454 0.887873 -0.381928
37 2 5.12107 4.1428 1.82024 -1.20198 0.991277 -0.305412
41 2 4.56477 1.63092 0.735696 0.0591792 0.42526 -0.459432
49 2 4.18002 0.910786 3.30214 -0.245739 -0.166683 0.560391
61 2 4.57549 3.4922 4.35755 0.0455169 -0.596888 0.825015
73 2 2.75352 3.90368 -0.0136654 -0.0281568 -0.107534 1.14465
81 2 2.32255 3.77999 2.62471 -0.440092 0.142231 -0.191695
5 1 6.28895 2.76821 0.98827 0.452707 -1.08572 0.375158
13 1 8.58272 0.151987 1.43885 -1.61156 -0.00356091 0.433456
21 1 8.04345 2.2761 4.08847 0.343626 0.476261 -1.27516
45 2 9.71142 1.58055 0.649414 0.376342 0.693101 0.241094
53 2 9.23934 0.809582 3.33467 0.161061 -0.0554503 -0.291112
69 2 6.90784 1.23658 2.369 0.240647 0.244091 0.247492
77 2 7.8577 3.84889 0.0371792 0.109806 0.516566 0.46615
85 2 7.41697 3.82595 2.70058 0.509412 -0.399062 -0.191171
93 2 6.48008 1.23101 4.95635 -0.318072 -0.656587 0.80345
2 1 0.308388 2.83954 6.1916 -0.240974 -0.156362 -0.292235
18 1 2.03475 2.31313 9.27524 0.384073 0.481779 -0.492708
26 1 -0.168995 4.9263 8.74626 0.345574 0.271273 0.0918056
34 2 -0.91615 4.28466 6.8673 0.206051 -0.31733 0.0816251
58 2 -1.2836 3.43392 9.46556 -0.706789 -0.710924 0.537676
66 2 0.972943 1.38124 7.52562 -0.504194 -0.678033 1.19432
74 2 1.88886 3.94715 5.21795 0.228165 -0.720983 0.273506
82 2 1.41046 3.85703 7.84761 0.424783 -0.222096 -0.45956
90 2 0.46289 1.18771 10.1837 0.321417 0.413113 -0.101329
6 1 5.32347 2.77844 6.26528 1.51035 -0.610683 -0.343233
10 1 2.45736 0.201634 6.70157 0.586043 -0.542423 -0.905149
30 1 4.97103 4.91899 8.8466 0.741217 0.0942328 -0.0443479
38 2 4.24616 4.23837 6.98386 -1.00705 0.835749 -0.0676762
42 2 3.74913 1.54223 5.93766 -0.458582 1.07526 -0.825613
50 2 3.29424 0.904541 8.50237 -0.203476 -0.255204 0.220423
62 2 3.78389 3.45875 9.50485 -0.547614 -0.427096 0.505554
70 2 6.06955 1.32549 7.6386 0.328785 -0.449625 -0.718139
94 2 5.55264 1.1541 10.1499 0.685669 0.772172 0.37124
14 1 7.66588 0.180352 6.63515 -0.721911 -0.520325 0.130011
22 1 7.21058 2.2818 9.2082 -0.807844 0.490549 0.0569664
46 2 8.82225 1.6011 5.89119 0.627573 0.747103 0.256887
54 2 8.43136 0.828157 8.51964 -0.151114 -0.290722 -0.455842
78 2 6.98117 3.83181 5.31257 -0.429419 0.0627541 -0.348631
86 2 6.5549 3.82119 7.88431 -0.12802 0.175248 -0.209071
3 1 1.20157 7.90168 0.964735 -0.463426 0.349484 0.866858
27 1 0.796531 10.0967 3.56716 -1.25249 0.0480211 1.04744
35 2 -0.0620459 9.30429 1.76836 0.668334 0.3603 -0.0238709
59 2 -0.447482 8.62097 4.3412 0.712517 0.346185 0.210105
67 2 1.82152 6.46915 2.39043 0.140318 -0.347726 0.313445
91 2 1.36596 6.38148 5.05713 0.440505 0.421616 -0.544305
11 1 3.38903 5.33863 1.53258 0.968762 -0.23582 -1.07988
19 1 2.92122 7.49297 4.08433 0.377575 -0.0155434 0.247207
31 1 5.86947 10.0818 3.65385 -0.0203511 0.150753 -0.687849
39 2 5.03298 9.3911 1.79159 0.149702 0.28132 0.599516
43 2 4.59372 6.83503 0.774243 -0.815884 -0.436668 -0.128245
51 2 4.16943 6.01137 3.35742 -0.719545 0.271751 0.0947958
63 2 4.60476 8.62131 4.4012 0.382313 0.462618 -0.677707
75 2 2.75068 9.09926 0.121673 -0.131471 -0.57917 -0.237674
83 2 2.32241 8.9867 2.77075 0.419503 -0.171835 -1.07571
7 1 6.26546 7.99668 1.05153 0.823835 -0.0978335 0.198392
15 1 8.4563 5.4019 1.4551 -0.464674 -0.276653 0.0806792
23 1 8.13259 7.51575 4.03959 -1.34878 0.373509 0.0677789
47 2 9.66087 6.81103 0.707349 0.582432 0.167156 -0.0902731
55 2 9.28858 6.07855 3.35775 0.123061 -0.841385 -0.890675
71 2 6.87715 6.49297 2.39716 0.492366 -0.59769 0.263414
79 2 7.90306 9.1058 0.117227 -0.252437 -0.809173 -1.11239
87 2 7.3855 8.9704 2.65378 0.0891658 0.230919 0.209214
95 2 6.50899 6.41197 4.94549 0.00377725 -0.128997 0.840848
4 1 0.302768 7.97293 6.23449 0.425813 -0.243925 -0.159891
20 1 2.09529 7.49085 9.29623 -0.126777 0.234316 -0.318214
28 1 -0.115851 10.0805 8.82379 0.0298716 -0.210477 0.541488
36 2 -0.867472 9.41894 6.97739 -0.0391959 0.3738 0.0387802
60 2 -1.29739 8.55385 9.5644 0.014865 0.74962 -1.01541
68 2 0.923208 6.49934 7.60203 0.561821 0.0199376 0.194347
76 2 1.84576 9.14371 5.31303 0.0535467 -0.873709 -0.445539
84 2 1.5635 9.01066 7.92424 -1.04362 0.314606 -0.143052
92 2 0.447437 6.39155 10.1116 0.492295 0.432083 1.207
8 1 5.38198 7.98568 6.19017 0.699952 0.247044 0.504058
12 1 2.54399 5.40818 6.67792 -0.845658 -0.551957 0.0482886
32 1 4.95729 10.0892 8.78171 0.0370465 0.565455 0.475055
40 2 4.19587 9.47354 6.91437 0.360873 -0.220022 0.387276
44 2 3.71356 6.8756 6.02165 -0.365217 -0.0187925 -0.768067
52 2 3.28918 6.05223 8.54374 -0.120028 -0.0463782 0.082382
64 2 3.7692 8.67718 9.60513 -0.0277969 -0.192424 -0.367269
72 2 6.03467 6.51081 7.57958 -0.363518 -0.0583855 0.385971
96 2 5.6178 6.4807 10.2359 -0.368986 -0.858317 -0.654488
16 1 7.57861 5.41773 6.62826 0.17237 -0.743658 -0.443208
24 1 7.15826 7.51549 9.22354 0.203049 0.127368 0.140409
48 2 8.89 6.81411 5.96159 -0.74961 0.273043 -0.570557
56 2 8.31931 6.0075 8.44712 0.0287073 0.555949 0.96155
80 2 7.062 9.00948 5.22955 -0.595481 1.00716 0.457728
88 2 6.54776 9.03417 7.8216 0.104507 -0.204391 0.257127
ITEM: TIMESTEP
50
ITEM: NUMBER OF ATOMS
96
ITEM: BOX BOUNDS xy xz yz pp pp pp
-1.8870650475736799e+00 1.0223790363742783e+01 0.0000000000000000e+00
-1.2102033282817093e-01 1.0401720332828173e+01 -1.7681148669308930e+00
-1.2095564295469874e-01 1.0396160226054700e+01 0.0000000000000000e+00
ITEM: ATOMS id type x y z fx fy fz
1 1 1.09453 2.76771 0.941186 0.912454 -0.690378 -0.00267579
25 1 0.627028 4.89869 3.55082 1.18607 0.0475198 0.202798