conf.lmp (written by ASE) 

12 	 atoms 
2  atom types
0.0      5.0755679999999996  xlo xhi
0.0      5.0755679999999996  ylo yhi
0.0      5.0755679999999996  zlo zhi


Atoms 

     1   1                       0                       0                       0
     2   1  5.6350124566506561e-16      2.5377839999999998      2.5377839999999998
     3   1      2.5377839999999998   1.553944526263683e-16      2.5377839999999998
     4   1      2.5377840000000003      2.5377839999999998 -4.9303806576313238e-32
     5   2      1.2688920000000004      1.2688920000000001      3.8066759999999995
     6   2      1.2688920000000008      3.8066759999999999      3.8066759999999995
     7   2      1.2688920000000006      3.8066759999999995      1.2688919999999999
     8   2      1.2688920000000001      1.2688919999999999      1.2688919999999999
     9   2      3.8066759999999995      1.2688919999999999      1.2688919999999999
    10   2      3.8066759999999999      3.8066759999999995      1.2688919999999999
    11   2      3.8066760000000004      3.8066759999999999      3.8066759999999995
    12   2      3.8066759999999999      1.2688920000000001      3.8066759999999995
