LAMMPS (2 Aug 2023 - Update 4)
  using 1 OpenMP thread(s) per MPI task
variable        NSTEPS          equal 100
variable        THERMO_FREQ     equal 1
variable        DUMP_FREQ       equal 1
variable        restart         equal 0
variable        TEMP            equal 300.000000
variable        PRESS           equal 1.000000
variable        TAU_T           equal 0.050000
variable        TAU_P           equal 0.500000

units           metal
boundary        p p p
atom_style      atomic

neighbor        1.0 bin
neigh_modify    delay 10

lattice fcc 3.615
Lattice spacing in x,y,z = 3.615 3.615 3.615
region box block 0 5 0 5 0 5
create_box 1 box
Created orthogonal box = (0 0 0) to (18.075 18.075 18.075)
  1 by 1 by 1 MPI processor grid
create_atoms 1 box
Created 500 atoms
  using lattice units in orthogonal box = (0 0 0) to (18.075 18.075 18.075)
  create_atoms CPU = 0.001 seconds

mass   1    63.546
pair_style   nep
pair_coeff       * * ../../nep.txt Cu

compute    allPe   all   pe
compute    myVirial all pressure NULL virial
variable   N_total equal count(all)
variable   pe_peratom equal c_allPe/v_N_total
variable   W_xx  equal c_myVirial[1]/v_N_total
variable   W_yy  equal c_myVirial[2]/v_N_total
variable   W_zz  equal c_myVirial[3]/v_N_total
variable   W_xy  equal c_myVirial[4]/v_N_total
variable   W_xz  equal c_myVirial[5]/v_N_total
variable   W_yz  equal c_myVirial[6]/v_N_total

thermo_style    custom step temp v_pe_peratom v_W_xx v_W_yy v_W_zz v_W_xy v_W_xz v_W_yz
thermo          ${THERMO_FREQ}
thermo          1

if "${restart} == 0" then "velocity        all create ${TEMP} 35826"
velocity        all create ${TEMP} 35826
velocity        all create 300 35826
fix             1 all npt temp ${TEMP} ${TEMP} ${TAU_T} iso ${PRESS} ${PRESS} ${TAU_P}
fix             1 all npt temp 300 ${TEMP} ${TAU_T} iso ${PRESS} ${PRESS} ${TAU_P}
fix             1 all npt temp 300 300 ${TAU_T} iso ${PRESS} ${PRESS} ${TAU_P}
fix             1 all npt temp 300 300 0.05 iso ${PRESS} ${PRESS} ${TAU_P}
fix             1 all npt temp 300 300 0.05 iso 1 ${PRESS} ${TAU_P}
fix             1 all npt temp 300 300 0.05 iso 1 1 ${TAU_P}
fix             1 all npt temp 300 300 0.05 iso 1 1 0.5
timestep        0.001000
#run             ${NSTEPS}
dump            1 all custom ${DUMP_FREQ} lammps.dump id type x y z fx fy fz vx vy vz
dump            1 all custom 1 lammps.dump id type x y z fx fy fz vx vy vz
dump_modify     1 sort id

run             ${NSTEPS}
run             100
Neighbor list info ...
  update: every = 1 steps, delay = 10 steps, check = yes
  max neighbors/atom: 2000, page size: 100000
  master list distance cutoff = 7
  ghost atom cutoff = 7
  binsize = 3.5, bins = 6 6 6
  1 neighbor lists, perpetual/occasional/extra = 1 0 0
  (1) pair nep, perpetual
      attributes: full, newton on
      pair build: full/bin/atomonly
      stencil: full/bin/3d
      bin: standard
Per MPI rank memory allocation (min/avg/max) = 3.144 | 3.144 | 3.144 Mbytes
   Step          Temp       v_pe_peratom      v_W_xx         v_W_yy         v_W_zz         v_W_xy         v_W_xz         v_W_yz    
         0   300           -3.7297997      43.914144      43.914144      43.914144     -1.6423032e-16 -1.0177397e-15 -2.4209485e-17
         1   299.6453      -3.7297621      43.81969       43.8196        43.818679      0.0020786631  -0.00046163885 -0.0022654926 
         2   298.58355     -3.7296493      43.53682       43.536463      43.532746      0.008335171   -0.00185059    -0.0090474813 
         3   296.82208     -3.7294619      43.066932      43.066133      43.057701      0.018780771   -0.0041748471  -0.020301528  
         4   294.37339     -3.7292006      42.412296      42.410873      42.395774      0.033400234   -0.0074445473  -0.035953528  
         5   291.25504     -3.7288667      41.576042      41.573798      41.550059      0.052151444   -0.011671333   -0.055900642  
         6   287.48939     -3.7284614      40.562145      40.558858      40.524496      0.074965185   -0.016867639   -0.080012434  
         7   283.10338     -3.7279868      39.375402      39.370822      39.323854      0.10174512    -0.02304592    -0.1081322    
         8   278.12819     -3.7274449      38.021408      38.015243      37.953708      0.13236804    -0.030217868   -0.14007847   
         9   272.59891     -3.7268382      36.506527      36.498439      36.420406      0.16668429    -0.038393625   -0.17564669   
        10   266.55412     -3.7261695      34.837854      34.827452      34.731039      0.20451853    -0.047581025   -0.21461104   
        11   260.03547     -3.7254417      33.023177      33.010012      32.893402      0.24567077    -0.057784897   -0.2567264    
        12   253.08723     -3.7246582      31.070933      31.054491      30.915948      0.28991758    -0.069006445   -0.30173047   
        13   245.75584     -3.7238226      28.990158      28.969857      28.807739      0.33701372    -0.081242711   -0.34934596   
        14   238.08937     -3.7229387      26.790432      26.76562       26.578394      0.38669387    -0.094486163   -0.39928288   
        15   230.13712     -3.7220106      24.481821      24.451771      24.238033      0.43867477    -0.10872439    -0.45124094   
        16   221.94905     -3.7210423      22.074813      22.038728      21.797206      0.4926574     -0.12393991    -0.50491193   
        17   213.57538     -3.7200385      19.580255      19.537272      19.266847      0.54832932    -0.14011026    -0.559972     
        18   205.0661      -3.7190036      17.009286      16.958567      16.658282      0.60536595    -0.15721617    -0.61600584   
        19   196.47048     -3.7179424      14.373353      14.313843      13.982909      0.66348682    -0.17527156    -0.67279409   
        20   187.83671     -3.7168597      11.683929      11.614531      11.252309      0.72235764    -0.19416982    -0.73002286   
        21   179.2115      -3.7157605      8.952635       8.8721063      8.4782749      0.78159762    -0.21391953    -0.78736929   
        22   170.63965     -3.7146499      6.1909432      6.098196       5.6724796      0.84088864    -0.23445601    -0.84443374   
        23   162.16376     -3.7135328      3.4103563      3.304213       2.8464912      0.89991382    -0.25572397    -0.90097002   
        24   153.82397     -3.7124145      0.62229766     0.50146448     0.011774658    0.95835796    -0.27769526    -0.95674071   
        25   145.65767     -3.7113        -2.1620634     -2.2989229     -2.8203707      1.0158911     -0.30032446    -1.0114715    
        26   137.69936     -3.7101946     -4.9317374     -5.0859989     -5.638894       1.0722859     -0.32357184    -1.0649001    
        27   129.98061     -3.7091033     -7.676328      -7.8493291     -8.4331258      1.1270382     -0.34733133    -1.1167777    
        28   122.53005     -3.7080311     -10.385716     -10.5788       -11.192709      1.1799087     -0.3715409     -1.16687      
        29   115.3735      -3.706983      -13.050073     -13.264611     -13.907655      1.230624      -0.39610775    -1.2149546    
        30   108.53421     -3.705964      -15.660048     -15.897352     -16.568427      1.2789098     -0.42100295    -1.2608082    
        31   102.03317     -3.7049786     -18.206737     -18.468093     -19.165978      1.3245155     -0.44618373    -1.3042862    
        32   95.889484     -3.7040316     -20.681666     -20.968287     -21.6916        1.3671707     -0.47163457    -1.345204     
        33   90.120692     -3.7031272     -23.076943     -23.39004      -24.13728       1.4066783     -0.49726515    -1.3833618    
        34   84.743063     -3.7022697     -25.38513      -25.725874     -26.495403      1.4428809     -0.52297379    -1.4186311    
        35   79.771742     -3.7014629     -27.599181     -27.96874      -28.758841      1.4756324     -0.54871394    -1.4509016    
        36   75.220733     -3.7007104     -29.712439     -30.111994     -30.920891      1.5048203     -0.57445519    -1.480089     
        37   71.102742     -3.7000155     -31.718859     -32.149327     -32.975254      1.5302501     -0.60009834    -1.5061248    
        38   67.428897     -3.6993812     -33.612744     -34.07498      -34.916081      1.5518417     -0.62558315    -1.5289035    
        39   64.208437     -3.6988099     -35.38864      -35.882964     -36.737726      1.5694588     -0.65088846    -1.5484416    
        40   61.448409     -3.6983039     -37.041484     -37.568465     -38.435063      1.5830348     -0.67601291    -1.5646311    
        41   59.153428     -3.6978648     -38.566783     -39.126909     -40.003282      1.5925539     -0.700846      -1.5774046    
        42   57.32555      -3.6974941     -39.960139     -40.554121     -41.438267      1.5979902     -0.72541934    -1.586788     
        43   55.964245     -3.6971924     -41.217608     -41.846127     -42.735884      1.5993934     -0.74972716    -1.5928099    
        44   55.066453     -3.6969604     -42.335389     -42.998915     -43.892251      1.5968049     -0.77374193    -1.5954874    
        45   54.6267       -3.696798      -43.310007     -44.00918      -44.903883      1.5901722     -0.7973994     -1.5948572    
        46   54.637239     -3.6967048     -44.138351     -44.873617     -45.767393      1.5795523     -0.82066786    -1.5909913    
        47   55.088205     -3.69668       -44.817741     -45.58924      -46.479915      1.5651052     -0.8435494     -1.5839421    
        48   55.967763     -3.6967222     -45.34557      -46.153331     -47.038885      1.5469129     -0.86599276    -1.5738032    
        49   57.262247     -3.6968298     -45.719321     -46.563407     -47.441967      1.525101      -0.8879941     -1.5605675    
        50   58.956284     -3.6970008     -45.937029     -46.817448     -47.68704       1.4998067     -0.90961786    -1.5443846    
        51   61.032893     -3.6972327     -45.996863     -46.913601     -47.772584      1.4710884     -0.93073264    -1.5253555    
        52   63.473582     -3.6975225     -45.897503     -46.850326     -47.697151      1.4391058     -0.95134924    -1.5035749    
        53   66.258435     -3.6978672     -45.637845     -46.626423     -47.459589      1.4040134     -0.97144494    -1.4791669    
        54   69.366201     -3.698263      -45.217114     -46.241084     -47.059065      1.3659395     -0.99100981    -1.4522894    
        55   72.774384     -3.6987063     -44.634884     -45.693855     -46.495181      1.3250239     -1.0100137     -1.4230458    
        56   76.459345     -3.6991926     -43.891114     -44.984667     -45.767941      1.2814748     -1.0283884     -1.3915535    
        57   80.396404     -3.6997177     -42.986246     -44.113942     -44.877853      1.2353817     -1.0460883     -1.3579734    
        58   84.559961     -3.7002767     -41.921057     -43.082562     -43.825836      1.1869483     -1.0631014     -1.3224049    
        59   88.923622     -3.7008648     -40.69717      -41.891937     -42.613351      1.1363121     -1.0793595     -1.2850057    
        60   93.460337     -3.7014768     -39.316544     -40.54398      -41.242449      1.0835982     -1.0948331     -1.2459332    
        61   98.142536     -3.7021075     -37.781872     -39.041247     -39.715786      1.0290444     -1.1094579     -1.2053822    
        62   102.94228     -3.7027515     -36.096305     -37.387027     -38.036613      0.9728489     -1.1232242     -1.1634611    
        63   107.83139     -3.7034034     -34.263777     -35.585344     -36.208825      0.91510012    -1.136005      -1.1203477    
        64   112.7816      -3.7040577     -32.289073     -33.640738     -34.237247      0.8560033     -1.147735      -1.0762529    
        65   117.7647      -3.7047091     -30.177555     -31.558378     -32.127245      0.79572081    -1.1583047     -1.0313165    
        66   122.75268     -3.7053523     -27.935481     -29.344323     -29.884967      0.734386      -1.1675691     -0.98573933   
        67   127.71786     -3.705982      -25.569896     -27.005668     -27.517416      0.67218564    -1.1754916     -0.939666     
        68   132.63308     -3.7065932     -23.088703     -24.550477     -25.032476      0.60925518    -1.1819353     -0.8932373    
        69   137.4718      -3.7071813     -20.500276     -21.987166     -22.438746      0.54560209    -1.1867467     -0.84660435   
        70   142.20832     -3.7077416     -17.814224     -19.325034     -19.745759      0.48157659    -1.1898797     -0.80004488   
        71   146.81787     -3.7082701     -15.04088      -16.574392     -16.96372       0.41736161    -1.1911904     -0.753716     
        72   151.27685     -3.7087628     -12.191351     -13.746553     -14.103703      0.35305733    -1.1906134     -0.70774507   
        73   155.56293     -3.7092166     -9.2772484     -10.853105     -11.177344      0.28878038    -1.1879963     -0.66225705   
        74   159.65529     -3.7096283     -6.3114128     -7.9066133     -8.1974198      0.22466552    -1.1831856     -0.61752046   
        75   163.53473     -3.7099956     -3.3071529     -4.9204448     -5.1771301      0.16093484    -1.176016      -0.5737231    
        76   167.18388     -3.7103164     -0.27804547    -1.9085111     -2.1302087      0.097738692   -1.1664003     -0.53104269   
        77   170.58736     -3.7105894      2.7613848      1.1148344      0.92898078     0.035282889   -1.1543789     -0.48963623   
        78   173.73189     -3.7108136      5.7961323      4.1346957      3.9854549     -0.02619848    -1.1398274     -0.44972207   
        79   176.60648     -3.7109887      8.8107747      7.135925       7.0240751     -0.086503788   -1.122652      -0.41155475   
        80   179.20254     -3.7111149      11.789804      10.10309       10.029326     -0.14543178    -1.1027404     -0.37532079   
        81   181.51395     -3.7111929      14.717535      13.020584      12.985507     -0.20278492    -1.0800137     -0.34114996   
        82   183.53718     -3.7112239      17.578274      15.872655      15.876714     -0.25831684    -1.0544061     -0.30911176   
        83   185.27136     -3.7112096      20.356126      18.643557      18.687127     -0.31177752    -1.0259605     -0.27946412   
        84   186.71825     -3.7111523      23.035669      21.317815      21.401094     -0.36284193    -0.99474528    -0.25232933   
        85   187.8823      -3.7110546      25.60145       23.880319      24.003283     -0.41138124    -0.96077147    -0.227852     
        86   188.77059     -3.7109194      28.038661      26.31612       26.47875      -0.45721499    -0.92423404    -0.20613148   
        87   189.39275     -3.7107502      30.332913      28.610913      28.813108     -0.50005713    -0.88505552    -0.18715063   
        88   189.76091     -3.7105506      32.470558      30.751075      30.992486     -0.53967769    -0.84331221    -0.17098027   
        89   189.88953     -3.7103244      34.438637      32.723728      33.003782     -0.57582233    -0.79922967    -0.1577613    
        90   189.79526     -3.7100757      36.224964      34.516876      34.834774     -0.60828878    -0.75290058    -0.14746457   
        91   189.49677     -3.7098087      37.818571      36.11951       36.474271     -0.63694702    -0.70458839    -0.14009226   
        92   189.0145      -3.7095276      39.209402      37.521615      37.912029     -0.66162432    -0.65449492    -0.13552856   
        93   188.37046     -3.7092365      40.388486      38.714153      39.138808     -0.68215634    -0.60283476    -0.13372467   
        94   187.58795     -3.7089397      41.348313      39.689636      40.146828     -0.69837348    -0.54990505    -0.13459863   
        95   186.69129     -3.7086412      42.082587      40.441933      40.929629     -0.7102071     -0.49592746    -0.13810168   
        96   185.7055      -3.7083448      42.586465      40.966123      41.481971     -0.71762724    -0.44122529    -0.14401808   
        97   184.65609     -3.7080542      42.856514      41.258639      41.800252     -0.72069325    -0.38616481    -0.15218943   
        98   183.56866     -3.7077727      42.890588      41.317365      41.88204      -0.71926874    -0.33081608    -0.16242307   
        99   182.46865     -3.7075034      42.68816       41.141832      41.726557     -0.713311      -0.27551869    -0.17454389   
       100   181.38104     -3.7072489      42.250195      40.733069      41.334535     -0.7029313     -0.22056562    -0.18831507   
Loop time of 13.0447 on 1 procs for 100 steps with 500 atoms

Performance: 0.662 ns/day, 36.235 hours/ns, 7.666 timesteps/s, 3.833 katom-step/s
50.2% CPU use with 1 MPI tasks x 1 OpenMP threads

MPI task timing breakdown:
Section |  min time  |  avg time  |  max time  |%varavg| %total
---------------------------------------------------------------
Pair    | 12.714     | 12.714     | 12.714     |   0.0 | 97.47
Neigh   | 0.0022426  | 0.0022426  | 0.0022426  |   0.0 |  0.02
Comm    | 0.014244   | 0.014244   | 0.014244   |   0.0 |  0.11
Output  | 0.29823    | 0.29823    | 0.29823    |   0.0 |  2.29
Modify  | 0.014765   | 0.014765   | 0.014765   |   0.0 |  0.11
Other   |            | 0.0007127  |            |       |  0.01

Nlocal:            500 ave         500 max         500 min
Histogram: 1 0 0 0 0 0 0 0 0 0
Nghost:           1956 ave        1956 max        1956 min
Histogram: 1 0 0 0 0 0 0 0 0 0
Neighs:              0 ave           0 max           0 min
Histogram: 1 0 0 0 0 0 0 0 0 0
FullNghs:        65924 ave       65924 max       65924 min
Histogram: 1 0 0 0 0 0 0 0 0 0

Total # of neighbors = 65924
Ave neighs/atom = 131.848
Neighbor list builds = 1
Dangerous builds = 0
Total wall time: 0:00:13
