Created from 100000.lmp
12           atoms
2            atom types
  0.000000000000   5.158307262837 xlo xhi
  0.000000000000   5.158307262837 ylo yhi
  0.000000000000   5.158307262837 zlo zhi
  0.000000000000   0.000000000000   0.000000000000 xy xz yz

Masses

1            178.490000000000 # 72
2             15.999000000000 # 8

Atoms # atomic

1            1              0.058648800000   4.839470000000  -0.147519000000
2            1              0.099740800000   2.629350000000   2.411050000000
3            1              2.345850000000   0.073746600000   2.551280000000
4            1              2.442900000000   2.208570000000   5.181840000000
5            2              0.984418000000   1.296290000000   3.846580000000
6            2              1.634690000000   3.642870000000   3.684870000000
7            2              1.548970000000   3.807350000000   1.163130000000
8            2              1.127860000000   1.286560000000   1.378310000000
9            2              4.132420000000   4.253960000000   1.475780000000
10           2              3.495320000000   1.581990000000   1.731720000000
11           2              4.413310000000   3.066350000000   4.304040000000
12           2              3.475020000000   0.671062000000   4.441290000000
