12
Lattice="5.15831 0.00000 0.00000 0.00000 5.15831 0.00000 0.00000 0.00000 5.15831" Properties=species:S:1:pos:R:3:force:R:3 pbc="T T T" energy=-975 
Hf     0.05864880     4.83947000    -0.14751900    -0.69977800    -1.00427000     0.33885700
Hf     0.09974080     2.62935000     2.41105000    -1.78729000     1.65352000     0.99535300
Hf     2.34585000     0.07374660     2.55128000     2.10064000    -0.30586700     0.01612240
Hf     2.44290000     2.20857000     5.18184000     1.23094000     1.90399000    -0.99547000
O     0.98441800     1.29629000     3.84658000     0.75354000    -2.40564000     0.47388900
O     1.63469000     3.64287000     3.68487000    -0.33547700     1.27969000     0.27227700
O     1.54897000     3.80735000     1.16313000    -1.03298000     0.48706400    -0.16674200
O     1.12786000     1.28656000     1.37831000    -0.84744700    -2.16673000    -1.96592000
O     4.13242000     4.25396000     1.47578000     0.37073800    -0.09672020     1.79051000
O     3.49532000     1.58199000     1.73172000     1.18519000     1.05085000     0.89688300
O     4.41331000     3.06635000     4.30404000    -1.01855000     1.28421000    -0.22756400
O     3.47502000     0.67106200     4.44129000     0.08047060    -1.68010000    -1.42819000
