12
Lattice="5.16282 0.00000 0.00000 0.00000 5.16282 0.00000 0.00000 0.00000 5.16282" Properties=species:S:1:pos:R:3:force:R:3 pbc="T T T" energy=-975 
Hf     4.95925000     5.13126000    -0.03939740     0.84279400    -0.03767790     0.72868100
Hf     0.06051360     2.44834000     2.48393000    -0.80571500     1.17237000    -0.79386200
Hf     2.51234000     5.04205000     2.66171000    -0.22516600     1.57664000    -2.21747000
Hf     2.60238000     2.56609000     4.98864000     0.55296300    -0.82745600     1.29041000
O     1.02135000     1.39172000     3.87399000     0.93396900    -0.00072102     0.93810000
O     1.56151000     4.13078000     4.19986000    -0.82040900    -0.96379400     0.49199400
O     0.87932400     4.17397000     1.63174000    -0.19500800     0.12517600    -0.42155500
O     1.64531000     1.61097000     1.33550000    -0.88329100    -0.23631800     0.00453792
O     4.06082000     1.33248000     1.31844000     0.86903900    -0.69701900    -1.32659000
O     3.52305000     3.88082000     1.19583000     0.00817946     0.07181150    -1.82811000
O     4.06027000     4.02927000     3.55915000     0.94787900    -2.57040000     1.96730000
O     3.73640000     1.16035000     3.81523000    -1.22523000     2.38740000     1.16656000
