Created from 10000.lmp
12           atoms
2            atom types
  0.000000000000   5.162822407263 xlo xhi
  0.000000000000   5.162822407263 ylo yhi
  0.000000000000   5.162822407263 zlo zhi
  0.000000000000   0.000000000000   0.000000000000 xy xz yz

Masses

1            178.490000000000 # 72
2             15.999000000000 # 8

Atoms # atomic

1            1              4.959250000000   5.131260000000  -0.039397400000
2            1              0.060513600000   2.448340000000   2.483930000000
3            1              2.512340000000   5.042050000000   2.661710000000
4            1              2.602380000000   2.566090000000   4.988640000000
5            2              1.021350000000   1.391720000000   3.873990000000
6            2              1.561510000000   4.130780000000   4.199860000000
7            2              0.879324000000   4.173970000000   1.631740000000
8            2              1.645310000000   1.610970000000   1.335500000000
9            2              4.060820000000   1.332480000000   1.318440000000
10           2              3.523050000000   3.880820000000   1.195830000000
11           2              4.060270000000   4.029270000000   3.559150000000
12           2              3.736400000000   1.160350000000   3.815230000000
