Created from 20000.lmp
12           atoms
2            atom types
  0.000000000000   5.173552325455 xlo xhi
  0.000000000000   5.173552325455 ylo yhi
  0.000000000000   5.173552325455 zlo zhi
  0.000000000000   0.000000000000   0.000000000000 xy xz yz

Masses

1            178.490000000000 # 72
2             15.999000000000 # 8

Atoms # atomic

1            1              5.085240000000  -0.004016650000   0.176767000000
2            1              5.053060000000   2.811690000000   2.437830000000
3            1              2.389820000000   5.001300000000   2.516750000000
4            1              2.727960000000   2.396710000000   4.950900000000
5            2              1.622310000000   0.891743000000   4.260740000000
6            2              1.349600000000   3.565010000000   3.567980000000
7            2              1.205070000000   3.867320000000   1.226090000000
8            2              1.187160000000   1.238080000000   1.484660000000
9            2              3.755600000000   1.281890000000   1.289380000000
10           2              3.723910000000   3.971390000000   1.449550000000
11           2              4.075950000000   3.654090000000   4.025990000000
12           2              4.148190000000   1.224190000000   3.766460000000
