12
Lattice="5.17355 0.00000 0.00000 0.00000 5.17355 0.00000 0.00000 0.00000 5.17355" Properties=species:S:1:pos:R:3:force:R:3 pbc="T T T" energy=-975 
Hf     5.08524000    -0.00401665     0.17676700     0.38378700     1.91482000    -1.08554000
Hf     5.05306000     2.81169000     2.43783000     0.15238300    -3.92420000     0.34153600
Hf     2.38982000     5.00130000     2.51675000    -0.54541500     2.80873000     1.04553000
Hf     2.72796000     2.39671000     4.95090000    -0.32319800    -0.77884700     0.75723800
O     1.62231000     0.89174300     4.26074000    -0.34229100    -0.76982100    -0.52704900
O     1.34960000     3.56501000     3.56798000     1.62432000    -0.40002800     1.92543000
O     1.20507000     3.86732000     1.22609000    -0.48978400     0.08861460    -2.33473000
O     1.18716000     1.23808000     1.48466000    -0.59164500    -0.07427390     0.84418000
O     3.75560000     1.28189000     1.28938000     0.26917400     0.60172300    -1.45966000
O     3.72391000     3.97139000     1.44955000     1.06830000    -0.78464300    -1.28791000
O     4.07595000     3.65409000     4.02599000    -0.98909000     1.84901000     1.05569000
O     4.14819000     1.22419000     3.76646000    -0.21654100    -0.53109400     0.72529300
