12
Lattice="5.30182 0.00000 0.00000 0.00000 5.30182 0.00000 0.00000 0.00000 5.30182" Properties=species:S:1:pos:R:3:force:R:3 pbc="T T T" energy=-975 
Hf     5.03938000     5.07576000     0.13179300     1.70522000     2.18444000    -2.30673000
Hf    -0.04669760     2.58992000     2.41738000     1.89971000    -1.75931000     1.89465000
Hf     2.30209000     5.13108000     2.48984000    -0.36047700     0.79015300     0.20775900
Hf     2.80097000     2.54216000     5.11401000    -0.51318000    -2.33178000     1.04683000
O     1.84459000     1.88487000     3.51012000    -0.38546900    -2.04095000    -1.54661000
O     0.67318500     4.30332000     3.66496000    -0.37988300     0.94589800    -0.50036200
O     1.33222000     3.67740000     1.18565000     0.52887500     0.94893500    -0.08318890
O     1.23979000     1.06383000     0.84293400     0.18393400    -0.75036100     1.37225000
O     3.95701000     1.16386000     1.48208000    -0.97858700    -0.85087500     0.06945310
O     4.04876000     3.76353000     1.27827000    -1.52266000     0.49373400     0.63436800
O     3.27434000     4.12069000     4.06167000     0.76496400     2.17311000    -0.69933000
O     4.55035000     1.59692000     4.25555000    -0.94244200     0.19700400    -0.08908940
