Created from 30000.lmp
12           atoms
2            atom types
  0.000000000000   5.301823245470 xlo xhi
  0.000000000000   5.301823245470 ylo yhi
  0.000000000000   5.301823245470 zlo zhi
  0.000000000000   0.000000000000   0.000000000000 xy xz yz

Masses

1            178.490000000000 # 72
2             15.999000000000 # 8

Atoms # atomic

1            1              5.039380000000   5.075760000000   0.131793000000
2            1             -0.046697600000   2.589920000000   2.417380000000
3            1              2.302090000000   5.131080000000   2.489840000000
4            1              2.800970000000   2.542160000000   5.114010000000
5            2              1.844590000000   1.884870000000   3.510120000000
6            2              0.673185000000   4.303320000000   3.664960000000
7            2              1.332220000000   3.677400000000   1.185650000000
8            2              1.239790000000   1.063830000000   0.842934000000
9            2              3.957010000000   1.163860000000   1.482080000000
10           2              4.048760000000   3.763530000000   1.278270000000
11           2              3.274340000000   4.120690000000   4.061670000000
12           2              4.550350000000   1.596920000000   4.255550000000
