Created from 40000.lmp
12           atoms
2            atom types
  0.000000000000   5.176508821531 xlo xhi
  0.000000000000   5.176508821531 ylo yhi
  0.000000000000   5.176508821531 zlo zhi
  0.000000000000   0.000000000000   0.000000000000 xy xz yz

Masses

1            178.490000000000 # 72
2             15.999000000000 # 8

Atoms # atomic

1            1              5.057520000000   0.124064000000  -0.025400900000
2            1              0.040367300000   2.469380000000   2.563060000000
3            1              2.615940000000   5.061370000000   2.517430000000
4            1              2.451000000000   2.491280000000  -0.058768700000
5            2              0.983797000000   0.954247000000   3.724240000000
6            2              1.610060000000   3.617980000000   3.749460000000
7            2              0.809158000000   3.936370000000   1.275230000000
8            2              1.510800000000   1.410580000000   1.228530000000
9            2              4.245190000000   1.133110000000   1.525460000000
10           2              3.354250000000   4.188500000000   0.901699000000
11           2              4.050010000000   3.944910000000   3.607880000000
12           2              3.586320000000   1.172790000000   4.047820000000
