12
Lattice="5.17651 0.00000 0.00000 0.00000 5.17651 0.00000 0.00000 0.00000 5.17651" Properties=species:S:1:pos:R:3:force:R:3 pbc="T T T" energy=-975 
Hf     5.05752000     0.12406400    -0.02540090    -0.60266200    -2.96392000     0.53669000
Hf     0.04036730     2.46938000     2.56306000     1.08865000     2.00366000     1.41949000
Hf     2.61594000     5.06137000     2.51743000    -0.75883600    -0.03741700     0.98358700
Hf     2.45100000     2.49128000    -0.05876870     1.64989000     2.29308000    -0.84530600
O     0.98379700     0.95424700     3.72424000     0.88214200     1.73693000    -0.51767400
O     1.61006000     3.61798000     3.74946000    -1.27796000    -0.50502700    -0.55179200
O     0.80915800     3.93637000     1.27523000     0.04844440    -0.42367700    -0.07200270
O     1.51080000     1.41058000     1.22853000    -0.39799500    -1.12443000     0.80770200
O     4.24519000     1.13311000     1.52546000    -1.71693000     1.24996000    -0.45128400
O     3.35425000     4.18850000     0.90169900    -0.05046130    -2.49435000    -0.78775100
O     4.05001000     3.94491000     3.60788000     1.42153000    -0.86209500    -0.44837000
O     3.58632000     1.17279000     4.04782000    -0.28580900     1.12729000    -0.07328960
