Created from 50000.lmp
12           atoms
2            atom types
  0.000000000000   5.264661369752 xlo xhi
  0.000000000000   5.264661369752 ylo yhi
  0.000000000000   5.264661369752 zlo zhi
  0.000000000000   0.000000000000   0.000000000000 xy xz yz

Masses

1            178.490000000000 # 72
2             15.999000000000 # 8

Atoms # atomic

1            1             -0.005962860000   4.909930000000  -0.038733700000
2            1              4.967800000000   2.525240000000   2.602720000000
3            1              2.744680000000   5.102960000000   2.422160000000
4            1              2.479980000000   2.414860000000   5.129610000000
5            2              0.406319000000   1.509030000000   4.142940000000
6            2              1.514480000000   4.036240000000   3.894180000000
7            2              1.184850000000   3.979040000000   1.210710000000
8            2              1.603900000000   1.282330000000   1.325090000000
9            2              3.866680000000   3.452670000000   1.048720000000
10           2              4.121810000000   0.909124000000   1.424250000000
11           2              4.054470000000   3.999900000000   3.724260000000
12           2              3.155290000000   1.032370000000   3.926870000000
