12
Lattice="5.26466 0.00000 0.00000 0.00000 5.26466 0.00000 0.00000 0.00000 5.26466" Properties=species:S:1:pos:R:3:force:R:3 pbc="T T T" energy=-975 
Hf    -0.00596286     4.90993000    -0.03873370    -0.00411890     1.76527000    -0.99930200
Hf     4.96780000     2.52524000     2.60272000     2.27086000    -0.61671900    -0.84763800
Hf     2.74468000     5.10296000     2.42216000    -2.13731000    -1.38992000    -0.91065100
Hf     2.47998000     2.41486000     5.12961000    -2.05877000     1.03579000     0.72736000
O     0.40631900     1.50903000     4.14294000     0.61424600    -0.63546000     0.76953600
O     1.51448000     4.03624000     3.89418000    -0.61712700    -0.82371400     0.48982000
O     1.18485000     3.97904000     1.21071000     0.06091310    -1.40293000     1.15502000
O     1.60390000     1.28233000     1.32509000    -0.49289600     0.46475500     0.18281900
O     3.86668000     3.45267000     1.04872000    -0.52274400     1.18639000    -0.01696870
O     4.12181000     0.90912400     1.42425000     1.69306000     0.01929440    -0.55070000
O     4.05447000     3.99990000     3.72426000     0.85518500    -1.55898000    -0.25914600
O     3.15529000     1.03237000     3.92687000     0.33870700     1.95622000     0.25985000
