12
Lattice="5.16607 0.00000 0.00000 0.00000 5.16607 0.00000 0.00000 0.00000 5.16607" Properties=species:S:1:pos:R:3:force:R:3 pbc="T T T" energy=-975 
Hf    -0.00919741     4.95262000     4.99196000    -0.80917400    -0.50522800     1.54573000
Hf     4.93648000     2.49747000     2.53365000     2.31497000     0.35493700    -1.36635000
Hf     2.36980000     4.96856000     2.64864000     0.32291400     0.76750600    -1.78811000
Hf     2.75842000     2.45212000    -0.01766150    -2.97925000    -0.13030400     1.90977000
O     1.37064000     1.02944000     4.41178000     1.71943000     0.93784000    -1.81956000
O     1.13751000     3.72639000     3.66457000    -0.41802500    -0.48818900    -0.47415200
O     1.42238000     3.92173000     0.98004200    -1.08871000     0.00246933     0.31318400
O     1.62074000     1.43704000     1.67002000    -0.10426300     0.03222030     1.61652000
O     3.79399000     3.92364000     1.29759000     1.08087000     0.27803200     0.84004400
O     4.22532000     1.51300000     0.95639600     0.26444100    -1.57468000    -2.16213000
O     3.74613000     3.65279000     3.84931000     0.22646700    -0.14096300     0.11089700
O     4.05247000     0.91284500     3.41175000    -0.52968400     0.46635500     1.27416000
