Created from 60000.lmp
12           atoms
2            atom types
  0.000000000000   5.166073160965 xlo xhi
  0.000000000000   5.166073160965 ylo yhi
  0.000000000000   5.166073160965 zlo zhi
  0.000000000000   0.000000000000   0.000000000000 xy xz yz

Masses

1            178.490000000000 # 72
2             15.999000000000 # 8

Atoms # atomic

1            1             -0.009197410000   4.952620000000   4.991960000000
2            1              4.936480000000   2.497470000000   2.533650000000
3            1              2.369800000000   4.968560000000   2.648640000000
4            1              2.758420000000   2.452120000000  -0.017661500000
5            2              1.370640000000   1.029440000000   4.411780000000
6            2              1.137510000000   3.726390000000   3.664570000000
7            2              1.422380000000   3.921730000000   0.980042000000
8            2              1.620740000000   1.437040000000   1.670020000000
9            2              3.793990000000   3.923640000000   1.297590000000
10           2              4.225320000000   1.513000000000   0.956396000000
11           2              3.746130000000   3.652790000000   3.849310000000
12           2              4.052470000000   0.912845000000   3.411750000000
