12
Lattice="5.20845 0.00000 0.00000 0.00000 5.20845 0.00000 0.00000 0.00000 5.20845" Properties=species:S:1:pos:R:3:force:R:3 pbc="T T T" energy=-975 
Hf     5.10342000     4.95843000    -0.02719580     1.44434000    -0.03364090    -0.29448700
Hf     5.07885000     2.50676000     2.58906000    -0.17258700     0.37591300     1.64940000
Hf     2.38232000     4.99036000     2.54992000     0.37185000    -0.07205660     0.75953600
Hf     2.67581000     2.52844000    -0.05585000     0.39477900     0.67016500    -0.77513400
O     0.69475900     0.79794700     3.58550000     1.53516000     0.03838870    -1.48579000
O     1.33842000     3.48260000     3.80778000     0.87916100     0.07778670     0.51940100
O     1.09961000     3.75759000     1.25593000     0.91229200    -0.14309800     0.00971168
O     2.36508000     0.74557100     0.72908400    -1.01059000     0.31193200     1.20315000
O     3.83682000     3.80560000     1.24595000    -1.82669000    -0.28909800     0.81386100
O     4.85040000     1.45959000     0.98053000    -0.32246700    -1.00551000    -1.38350000
O     3.98413000     3.85030000     3.86559000    -1.32484000     0.32265200    -0.24913200
O     3.46267000     1.38502000     3.56848000    -0.88041700    -0.25343200    -0.76701900
