Created from 70000.lmp
12           atoms
2            atom types
  0.000000000000   5.208453909081 xlo xhi
  0.000000000000   5.208453909081 ylo yhi
  0.000000000000   5.208453909081 zlo zhi
  0.000000000000   0.000000000000   0.000000000000 xy xz yz

Masses

1            178.490000000000 # 72
2             15.999000000000 # 8

Atoms # atomic

1            1              5.103420000000   4.958430000000  -0.027195800000
2            1              5.078850000000   2.506760000000   2.589060000000
3            1              2.382320000000   4.990360000000   2.549920000000
4            1              2.675810000000   2.528440000000  -0.055850000000
5            2              0.694759000000   0.797947000000   3.585500000000
6            2              1.338420000000   3.482600000000   3.807780000000
7            2              1.099610000000   3.757590000000   1.255930000000
8            2              2.365080000000   0.745571000000   0.729084000000
9            2              3.836820000000   3.805600000000   1.245950000000
10           2              4.850400000000   1.459590000000   0.980530000000
11           2              3.984130000000   3.850300000000   3.865590000000
12           2              3.462670000000   1.385020000000   3.568480000000
