12
Lattice="5.19010 0.00000 0.00000 0.00000 5.19010 0.00000 0.00000 0.00000 5.19010" Properties=species:S:1:pos:R:3:force:R:3 pbc="T T T" energy=-975 
Hf    -0.10107700     5.05867000     0.05557920     0.57779300     0.29078700     1.36383000
Hf     0.08997290     2.60123000     2.43260000    -0.45991200    -1.18849000    -0.74901700
Hf     2.48005000     5.03258000     2.63845000     2.31320000    -0.15876500    -0.57033700
Hf     2.55088000     2.36774000     4.98062000    -1.28606000     0.06485490     2.51933000
O     1.21413000     1.03466000     3.51604000    -2.66385000     2.51932000     0.62314500
O     1.09578000     3.75068000     4.16203000    -0.65243100    -1.10338000    -1.54649000
O     1.39623000     3.93768000     1.39958000    -1.79578000    -1.56129000     0.26563400
O     1.15699000     1.25909000     0.95819000     0.37176200     0.83786100    -0.02905810
O     3.92857000     3.61807000     1.05029000     0.82567500    -0.58216800    -1.04676000
O     4.05208000     0.99811900     1.77457000    -0.88336900    -0.38671700     0.14778700
O     3.48321000     3.12207000     3.47647000     1.69412000     1.24944000    -1.18789000
O     3.31945000     0.52694400     4.45463000     1.95886000     0.01854660     0.20981500
