Created from 80000.lmp
12           atoms
2            atom types
  0.000000000000   5.190095708686 xlo xhi
  0.000000000000   5.190095708686 ylo yhi
  0.000000000000   5.190095708686 zlo zhi
  0.000000000000   0.000000000000   0.000000000000 xy xz yz

Masses

1            178.490000000000 # 72
2             15.999000000000 # 8

Atoms # atomic

1            1             -0.101077000000   5.058670000000   0.055579200000
2            1              0.089972900000   2.601230000000   2.432600000000
3            1              2.480050000000   5.032580000000   2.638450000000
4            1              2.550880000000   2.367740000000   4.980620000000
5            2              1.214130000000   1.034660000000   3.516040000000
6            2              1.095780000000   3.750680000000   4.162030000000
7            2              1.396230000000   3.937680000000   1.399580000000
8            2              1.156990000000   1.259090000000   0.958190000000
9            2              3.928570000000   3.618070000000   1.050290000000
10           2              4.052080000000   0.998119000000   1.774570000000
11           2              3.483210000000   3.122070000000   3.476470000000
12           2              3.319450000000   0.526944000000   4.454630000000
