Created from 90000.lmp
12           atoms
2            atom types
  0.000000000000   5.270937722201 xlo xhi
  0.000000000000   5.270937722201 ylo yhi
  0.000000000000   5.270937722201 zlo zhi
  0.000000000000   0.000000000000   0.000000000000 xy xz yz

Masses

1            178.490000000000 # 72
2             15.999000000000 # 8

Atoms # atomic

1            1              5.179740000000   5.074010000000   5.045290000000
2            1              5.119780000000   2.160670000000   2.706380000000
3            1              2.229620000000  -0.051806800000   2.449630000000
4            1              2.872890000000   2.576980000000  -0.007435900000
5            2              1.206420000000   1.020780000000   4.037870000000
6            2              0.777187000000   3.884930000000   3.375020000000
7            2              1.786410000000   3.933500000000   0.869254000000
8            2              1.102500000000   1.340150000000   1.285120000000
9            2              4.512440000000   3.328100000000   0.855949000000
10           2              3.688550000000   0.960306000000   1.634160000000
11           2              3.451810000000   3.677370000000   3.475870000000
12           2              4.000550000000   1.251430000000   4.292280000000
