12
Lattice="5.27094 0.00000 0.00000 0.00000 5.27094 0.00000 0.00000 0.00000 5.27094" Properties=species:S:1:pos:R:3:force:R:3 pbc="T T T" energy=-975 
Hf     5.17974000     5.07401000     5.04529000     1.33287000    -1.97975000     0.77845300
Hf     5.11978000     2.16067000     2.70638000    -0.68798500     2.24402000    -0.62005200
Hf     2.22962000    -0.05180680     2.44963000    -0.49380900    -2.30464000     1.02124000
Hf     2.87289000     2.57698000    -0.00743590    -0.97599800    -0.21923000     0.21779500
O     1.20642000     1.02078000     4.03787000     1.17511000     0.90406600    -1.46709000
O     0.77718700     3.88493000     3.37502000    -0.82993900     0.17608600     1.01366000
O     1.78641000     3.93350000     0.86925400    -0.69932900     2.53715000     0.27240900
O     1.10250000     1.34015000     1.28512000    -0.34507400    -1.35717000     0.37762200
O     4.51244000     3.32810000     0.85594900    -0.15561100     1.05091000    -0.34682600
O     3.68855000     0.96030600     1.63416000     1.31136000     0.61415900    -1.02192000
O     3.45181000     3.67737000     3.47587000    -0.09534480     0.14623100     1.18197000
O     4.00055000     1.25143000     4.29228000     0.46375100    -1.81184000    -1.40726000
