12
Lattice="5.16282 0.00000 0.00000 0.00000 5.16282 0.00000 0.00000 0.00000 5.16282" Properties=species:S:1:pos:R:3:force:R:3:bec:R:9 pbc="T T T" energy=-975 
Hf     4.95925000     5.13126000    -0.03939740     0.84279400    -0.03767790     0.72868100      -1      -1      -1      -1      -1      -1      -1      -1      -1
Hf     0.06051360     2.44834000     2.48393000    -0.80571500     1.17237000    -0.79386200      -1      -1      -1      -1      -1      -1      -1      -1      -1
Hf     2.51234000     5.04205000     2.66171000    -0.22516600     1.57664000    -2.21747000      -1      -1      -1      -1      -1      -1      -1      -1      -1
Hf     2.60238000     2.56609000     4.98864000     0.55296300    -0.82745600     1.29041000      -1      -1      -1      -1      -1      -1      -1      -1      -1
O     1.02135000     1.39172000     3.87399000     0.93396900    -0.00072102     0.93810000      -1      -1      -1      -1      -1      -1      -1      -1      -1
O     1.56151000     4.13078000     4.19986000    -0.82040900    -0.96379400     0.49199400      -1      -1      -1      -1      -1      -1      -1      -1      -1
O     0.87932400     4.17397000     1.63174000    -0.19500800     0.12517600    -0.42155500      -1      -1      -1      -1      -1      -1      -1      -1      -1
O     1.64531000     1.61097000     1.33550000    -0.88329100    -0.23631800     0.00453792      -1      -1      -1      -1      -1      -1      -1      -1      -1
O     4.06082000     1.33248000     1.31844000     0.86903900    -0.69701900    -1.32659000      -1      -1      -1      -1      -1      -1      -1      -1      -1
O     3.52305000     3.88082000     1.19583000     0.00817946     0.07181150    -1.82811000      -1      -1      -1      -1      -1      -1      -1      -1      -1
O     4.06027000     4.02927000     3.55915000     0.94787900    -2.57040000     1.96730000      -1      -1      -1      -1      -1      -1      -1      -1      -1
O     3.73640000     1.16035000     3.81523000    -1.22523000     2.38740000     1.16656000      -1      -1      -1      -1      -1      -1      -1      -1      -1
12
Lattice="5.17355 0.00000 0.00000 0.00000 5.17355 0.00000 0.00000 0.00000 5.17355" Properties=species:S:1:pos:R:3:force:R:3:bec:R:9 pbc="T T T" energy=-975 
Hf     5.08524000    -0.00401665     0.17676700     0.38378700     1.91482000    -1.08554000      -1      -1      -1      -1      -1      -1      -1      -1      -1
Hf     5.05306000     2.81169000     2.43783000     0.15238300    -3.92420000     0.34153600      -1      -1      -1      -1      -1      -1      -1      -1      -1
Hf     2.38982000     5.00130000     2.51675000    -0.54541500     2.80873000     1.04553000      -1      -1      -1      -1      -1      -1      -1      -1      -1
Hf     2.72796000     2.39671000     4.95090000    -0.32319800    -0.77884700     0.75723800      -1      -1      -1      -1      -1      -1      -1      -1      -1
O     1.62231000     0.89174300     4.26074000    -0.34229100    -0.76982100    -0.52704900      -1      -1      -1      -1      -1      -1      -1      -1      -1
O     1.34960000     3.56501000     3.56798000     1.62432000    -0.40002800     1.92543000      -1      -1      -1      -1      -1      -1      -1      -1      -1
O     1.20507000     3.86732000     1.22609000    -0.48978400     0.08861460    -2.33473000      -1      -1      -1      -1      -1      -1      -1      -1      -1
O     1.18716000     1.23808000     1.48466000    -0.59164500    -0.07427390     0.84418000      -1      -1      -1      -1      -1      -1      -1      -1      -1
O     3.75560000     1.28189000     1.28938000     0.26917400     0.60172300    -1.45966000      -1      -1      -1      -1      -1      -1      -1      -1      -1
O     3.72391000     3.97139000     1.44955000     1.06830000    -0.78464300    -1.28791000      -1      -1      -1      -1      -1      -1      -1      -1      -1
O     4.07595000     3.65409000     4.02599000    -0.98909000     1.84901000     1.05569000      -1      -1      -1      -1      -1      -1      -1      -1      -1
O     4.14819000     1.22419000     3.76646000    -0.21654100    -0.53109400     0.72529300      -1      -1      -1      -1      -1      -1      -1      -1      -1
12
Lattice="5.30182 0.00000 0.00000 0.00000 5.30182 0.00000 0.00000 0.00000 5.30182" Properties=species:S:1:pos:R:3:force:R:3:bec:R:9 pbc="T T T" energy=-975 
Hf     5.03938000     5.07576000     0.13179300     1.70522000     2.18444000    -2.30673000      -1      -1      -1      -1      -1      -1      -1      -1      -1
Hf    -0.04669760     2.58992000     2.41738000     1.89971000    -1.75931000     1.89465000      -1      -1      -1      -1      -1      -1      -1      -1      -1
Hf     2.30209000     5.13108000     2.48984000    -0.36047700     0.79015300     0.20775900      -1      -1      -1      -1      -1      -1      -1      -1      -1
Hf     2.80097000     2.54216000     5.11401000    -0.51318000    -2.33178000     1.04683000      -1      -1      -1      -1      -1      -1      -1      -1      -1
O     1.84459000     1.88487000     3.51012000    -0.38546900    -2.04095000    -1.54661000      -1      -1      -1      -1      -1      -1      -1      -1      -1
O     0.67318500     4.30332000     3.66496000    -0.37988300     0.94589800    -0.50036200      -1      -1      -1      -1      -1      -1      -1      -1      -1
O     1.33222000     3.67740000     1.18565000     0.52887500     0.94893500    -0.08318890      -1      -1      -1      -1      -1      -1      -1      -1      -1
O     1.23979000     1.06383000     0.84293400     0.18393400    -0.75036100     1.37225000      -1      -1      -1      -1      -1      -1      -1      -1      -1
O     3.95701000     1.16386000     1.48208000    -0.97858700    -0.85087500     0.06945310      -1      -1      -1      -1      -1      -1      -1      -1      -1
O     4.04876000     3.76353000     1.27827000    -1.52266000     0.49373400     0.63436800      -1      -1      -1      -1      -1      -1      -1      -1      -1
O     3.27434000     4.12069000     4.06167000     0.76496400     2.17311000    -0.69933000      -1      -1      -1      -1      -1      -1      -1      -1      -1
O     4.55035000     1.59692000     4.25555000    -0.94244200     0.19700400    -0.08908940      -1      -1      -1      -1      -1      -1      -1      -1      -1
12
Lattice="5.17651 0.00000 0.00000 0.00000 5.17651 0.00000 0.00000 0.00000 5.17651" Properties=species:S:1:pos:R:3:force:R:3:bec:R:9 pbc="T T T" energy=-975 
Hf     5.05752000     0.12406400    -0.02540090    -0.60266200    -2.96392000     0.53669000      -1      -1      -1      -1      -1      -1      -1      -1      -1
Hf     0.04036730     2.46938000     2.56306000     1.08865000     2.00366000     1.41949000      -1      -1      -1      -1      -1      -1      -1      -1      -1
Hf     2.61594000     5.06137000     2.51743000    -0.75883600    -0.03741700     0.98358700      -1      -1      -1      -1      -1      -1      -1      -1      -1
Hf     2.45100000     2.49128000    -0.05876870     1.64989000     2.29308000    -0.84530600      -1      -1      -1      -1      -1      -1      -1      -1      -1
O     0.98379700     0.95424700     3.72424000     0.88214200     1.73693000    -0.51767400      -1      -1      -1      -1      -1      -1      -1      -1      -1
O     1.61006000     3.61798000     3.74946000    -1.27796000    -0.50502700    -0.55179200      -1      -1      -1      -1      -1      -1      -1      -1      -1
O     0.80915800     3.93637000     1.27523000     0.04844440    -0.42367700    -0.07200270      -1      -1      -1      -1      -1      -1      -1      -1      -1
O     1.51080000     1.41058000     1.22853000    -0.39799500    -1.12443000     0.80770200      -1      -1      -1      -1      -1      -1      -1      -1      -1
O     4.24519000     1.13311000     1.52546000    -1.71693000     1.24996000    -0.45128400      -1      -1      -1      -1      -1      -1      -1      -1      -1
O     3.35425000     4.18850000     0.90169900    -0.05046130    -2.49435000    -0.78775100      -1      -1      -1      -1      -1      -1      -1      -1      -1
O     4.05001000     3.94491000     3.60788000     1.42153000    -0.86209500    -0.44837000      -1      -1      -1      -1      -1      -1      -1      -1      -1
O     3.58632000     1.17279000     4.04782000    -0.28580900     1.12729000    -0.07328960      -1      -1      -1      -1      -1      -1      -1      -1      -1
12
Lattice="5.26466 0.00000 0.00000 0.00000 5.26466 0.00000 0.00000 0.00000 5.26466" Properties=species:S:1:pos:R:3:force:R:3:bec:R:9 pbc="T T T" energy=-975 
Hf    -0.00596286     4.90993000    -0.03873370    -0.00411890     1.76527000    -0.99930200      -1      -1      -1      -1      -1      -1      -1      -1      -1
Hf     4.96780000     2.52524000     2.60272000     2.27086000    -0.61671900    -0.84763800      -1      -1      -1      -1      -1      -1      -1      -1      -1
Hf     2.74468000     5.10296000     2.42216000    -2.13731000    -1.38992000    -0.91065100      -1      -1      -1      -1      -1      -1      -1      -1      -1
Hf     2.47998000     2.41486000     5.12961000    -2.05877000     1.03579000     0.72736000      -1      -1      -1      -1      -1      -1      -1      -1      -1
O     0.40631900     1.50903000     4.14294000     0.61424600    -0.63546000     0.76953600      -1      -1      -1      -1      -1      -1      -1      -1      -1
O     1.51448000     4.03624000     3.89418000    -0.61712700    -0.82371400     0.48982000      -1      -1      -1      -1      -1      -1      -1      -1      -1
O     1.18485000     3.97904000     1.21071000     0.06091310    -1.40293000     1.15502000      -1      -1      -1      -1      -1      -1      -1      -1      -1
O     1.60390000     1.28233000     1.32509000    -0.49289600     0.46475500     0.18281900      -1      -1      -1      -1      -1      -1      -1      -1      -1
O     3.86668000     3.45267000     1.04872000    -0.52274400     1.18639000    -0.01696870      -1      -1      -1      -1      -1      -1      -1      -1      -1
O     4.12181000     0.90912400     1.42425000     1.69306000     0.01929440    -0.55070000      -1      -1      -1      -1      -1      -1      -1      -1      -1
O     4.05447000     3.99990000     3.72426000     0.85518500    -1.55898000    -0.25914600      -1      -1      -1      -1      -1      -1      -1      -1      -1
O     3.15529000     1.03237000     3.92687000     0.33870700     1.95622000     0.25985000      -1      -1      -1      -1      -1      -1      -1      -1      -1
12
Lattice="5.16607 0.00000 0.00000 0.00000 5.16607 0.00000 0.00000 0.00000 5.16607" Properties=species:S:1:pos:R:3:force:R:3:bec:R:9 pbc="T T T" energy=-975 
Hf    -0.00919741     4.95262000     4.99196000    -0.80917400    -0.50522800     1.54573000      -1      -1      -1      -1      -1      -1      -1      -1      -1
Hf     4.93648000     2.49747000     2.53365000     2.31497000     0.35493700    -1.36635000      -1      -1      -1      -1      -1      -1      -1      -1      -1
Hf     2.36980000     4.96856000     2.64864000     0.32291400     0.76750600    -1.78811000      -1      -1      -1      -1      -1      -1      -1      -1      -1
Hf     2.75842000     2.45212000    -0.01766150    -2.97925000    -0.13030400     1.90977000      -1      -1      -1      -1      -1      -1      -1      -1      -1
O     1.37064000     1.02944000     4.41178000     1.71943000     0.93784000    -1.81956000      -1      -1      -1      -1      -1      -1      -1      -1      -1
O     1.13751000     3.72639000     3.66457000    -0.41802500    -0.48818900    -0.47415200      -1      -1      -1      -1      -1      -1      -1      -1      -1
O     1.42238000     3.92173000     0.98004200    -1.08871000     0.00246933     0.31318400      -1      -1      -1      -1      -1      -1      -1      -1      -1
O     1.62074000     1.43704000     1.67002000    -0.10426300     0.03222030     1.61652000      -1      -1      -1      -1      -1      -1      -1      -1      -1
O     3.79399000     3.92364000     1.29759000     1.08087000     0.27803200     0.84004400      -1      -1      -1      -1      -1      -1      -1      -1      -1
O     4.22532000     1.51300000     0.95639600     0.26444100    -1.57468000    -2.16213000      -1      -1      -1      -1      -1      -1      -1      -1      -1
O     3.74613000     3.65279000     3.84931000     0.22646700    -0.14096300     0.11089700      -1      -1      -1      -1      -1      -1      -1      -1      -1
O     4.05247000     0.91284500     3.41175000    -0.52968400     0.46635500     1.27416000      -1      -1      -1      -1      -1      -1      -1      -1      -1
12
Lattice="5.20845 0.00000 0.00000 0.00000 5.20845 0.00000 0.00000 0.00000 5.20845" Properties=species:S:1:pos:R:3:force:R:3:bec:R:9 pbc="T T T" energy=-975 
Hf     5.10342000     4.95843000    -0.02719580     1.44434000    -0.03364090    -0.29448700      -1      -1      -1      -1      -1      -1      -1      -1      -1
Hf     5.07885000     2.50676000     2.58906000    -0.17258700     0.37591300     1.64940000      -1      -1      -1      -1      -1      -1      -1      -1      -1
Hf     2.38232000     4.99036000     2.54992000     0.37185000    -0.07205660     0.75953600      -1      -1      -1      -1      -1      -1      -1      -1      -1
Hf     2.67581000     2.52844000    -0.05585000     0.39477900     0.67016500    -0.77513400      -1      -1      -1      -1      -1      -1      -1      -1      -1
O     0.69475900     0.79794700     3.58550000     1.53516000     0.03838870    -1.48579000      -1      -1      -1      -1      -1      -1      -1      -1      -1
O     1.33842000     3.48260000     3.80778000     0.87916100     0.07778670     0.51940100      -1      -1      -1      -1      -1      -1      -1      -1      -1
O     1.09961000     3.75759000     1.25593000     0.91229200    -0.14309800     0.00971168      -1      -1      -1      -1      -1      -1      -1      -1      -1
O     2.36508000     0.74557100     0.72908400    -1.01059000     0.31193200     1.20315000      -1      -1      -1      -1      -1      -1      -1      -1      -1
O     3.83682000     3.80560000     1.24595000    -1.82669000    -0.28909800     0.81386100      -1      -1      -1      -1      -1      -1      -1      -1      -1
O     4.85040000     1.45959000     0.98053000    -0.32246700    -1.00551000    -1.38350000      -1      -1      -1      -1      -1      -1      -1      -1      -1
O     3.98413000     3.85030000     3.86559000    -1.32484000     0.32265200    -0.24913200      -1      -1      -1      -1      -1      -1      -1      -1      -1
O     3.46267000     1.38502000     3.56848000    -0.88041700    -0.25343200    -0.76701900      -1      -1      -1      -1      -1      -1      -1      -1      -1
12
Lattice="5.19010 0.00000 0.00000 0.00000 5.19010 0.00000 0.00000 0.00000 5.19010" Properties=species:S:1:pos:R:3:force:R:3:bec:R:9 pbc="T T T" energy=-975 
Hf    -0.10107700     5.05867000     0.05557920     0.57779300     0.29078700     1.36383000      -1      -1      -1      -1      -1      -1      -1      -1      -1
Hf     0.08997290     2.60123000     2.43260000    -0.45991200    -1.18849000    -0.74901700      -1      -1      -1      -1      -1      -1      -1      -1      -1
Hf     2.48005000     5.03258000     2.63845000     2.31320000    -0.15876500    -0.57033700      -1      -1      -1      -1      -1      -1      -1      -1      -1
Hf     2.55088000     2.36774000     4.98062000    -1.28606000     0.06485490     2.51933000      -1      -1      -1      -1      -1      -1      -1      -1      -1
O     1.21413000     1.03466000     3.51604000    -2.66385000     2.51932000     0.62314500      -1      -1      -1      -1      -1      -1      -1      -1      -1
O     1.09578000     3.75068000     4.16203000    -0.65243100    -1.10338000    -1.54649000      -1      -1      -1      -1      -1      -1      -1      -1      -1
O     1.39623000     3.93768000     1.39958000    -1.79578000    -1.56129000     0.26563400      -1      -1      -1      -1      -1      -1      -1      -1      -1
O     1.15699000     1.25909000     0.95819000     0.37176200     0.83786100    -0.02905810      -1      -1      -1      -1      -1      -1      -1      -1      -1
O     3.92857000     3.61807000     1.05029000     0.82567500    -0.58216800    -1.04676000      -1      -1      -1      -1      -1      -1      -1      -1      -1
O     4.05208000     0.99811900     1.77457000    -0.88336900    -0.38671700     0.14778700      -1      -1      -1      -1      -1      -1      -1      -1      -1
O     3.48321000     3.12207000     3.47647000     1.69412000     1.24944000    -1.18789000      -1      -1      -1      -1      -1      -1      -1      -1      -1
O     3.31945000     0.52694400     4.45463000     1.95886000     0.01854660     0.20981500      -1      -1      -1      -1      -1      -1      -1      -1      -1
12
Lattice="5.27094 0.00000 0.00000 0.00000 5.27094 0.00000 0.00000 0.00000 5.27094" Properties=species:S:1:pos:R:3:force:R:3:bec:R:9 pbc="T T T" energy=-975 
Hf     5.17974000     5.07401000     5.04529000     1.33287000    -1.97975000     0.77845300      -1      -1      -1      -1      -1      -1      -1      -1      -1
Hf     5.11978000     2.16067000     2.70638000    -0.68798500     2.24402000    -0.62005200      -1      -1      -1      -1      -1      -1      -1      -1      -1
Hf     2.22962000    -0.05180680     2.44963000    -0.49380900    -2.30464000     1.02124000      -1      -1      -1      -1      -1      -1      -1      -1      -1
Hf     2.87289000     2.57698000    -0.00743590    -0.97599800    -0.21923000     0.21779500      -1      -1      -1      -1      -1      -1      -1      -1      -1
O     1.20642000     1.02078000     4.03787000     1.17511000     0.90406600    -1.46709000      -1      -1      -1      -1      -1      -1      -1      -1      -1
O     0.77718700     3.88493000     3.37502000    -0.82993900     0.17608600     1.01366000      -1      -1      -1      -1      -1      -1      -1      -1      -1
O     1.78641000     3.93350000     0.86925400    -0.69932900     2.53715000     0.27240900      -1      -1      -1      -1      -1      -1      -1      -1      -1
O     1.10250000     1.34015000     1.28512000    -0.34507400    -1.35717000     0.37762200      -1      -1      -1      -1      -1      -1      -1      -1      -1
O     4.51244000     3.32810000     0.85594900    -0.15561100     1.05091000    -0.34682600      -1      -1      -1      -1      -1      -1      -1      -1      -1
O     3.68855000     0.96030600     1.63416000     1.31136000     0.61415900    -1.02192000      -1      -1      -1      -1      -1      -1      -1      -1      -1
O     3.45181000     3.67737000     3.47587000    -0.09534480     0.14623100     1.18197000      -1      -1      -1      -1      -1      -1      -1      -1      -1
O     4.00055000     1.25143000     4.29228000     0.46375100    -1.81184000    -1.40726000      -1      -1      -1      -1      -1      -1      -1      -1      -1
12
Lattice="5.15831 0.00000 0.00000 0.00000 5.15831 0.00000 0.00000 0.00000 5.15831" Properties=species:S:1:pos:R:3:force:R:3:bec:R:9 pbc="T T T" energy=-975 
Hf     0.05864880     4.83947000    -0.14751900    -0.69977800    -1.00427000     0.33885700      -1      -1      -1      -1      -1      -1      -1      -1      -1
Hf     0.09974080     2.62935000     2.41105000    -1.78729000     1.65352000     0.99535300      -1      -1      -1      -1      -1      -1      -1      -1      -1
Hf     2.34585000     0.07374660     2.55128000     2.10064000    -0.30586700     0.01612240      -1      -1      -1      -1      -1      -1      -1      -1      -1
Hf     2.44290000     2.20857000     5.18184000     1.23094000     1.90399000    -0.99547000      -1      -1      -1      -1      -1      -1      -1      -1      -1
O     0.98441800     1.29629000     3.84658000     0.75354000    -2.40564000     0.47388900      -1      -1      -1      -1      -1      -1      -1      -1      -1
O     1.63469000     3.64287000     3.68487000    -0.33547700     1.27969000     0.27227700      -1      -1      -1      -1      -1      -1      -1      -1      -1
O     1.54897000     3.80735000     1.16313000    -1.03298000     0.48706400    -0.16674200      -1      -1      -1      -1      -1      -1      -1      -1      -1
O     1.12786000     1.28656000     1.37831000    -0.84744700    -2.16673000    -1.96592000      -1      -1      -1      -1      -1      -1      -1      -1      -1
O     4.13242000     4.25396000     1.47578000     0.37073800    -0.09672020     1.79051000      -1      -1      -1      -1      -1      -1      -1      -1      -1
O     3.49532000     1.58199000     1.73172000     1.18519000     1.05085000     0.89688300      -1      -1      -1      -1      -1      -1      -1      -1      -1
O     4.41331000     3.06635000     4.30404000    -1.01855000     1.28421000    -0.22756400      -1      -1      -1      -1      -1      -1      -1      -1      -1
O     3.47502000     0.67106200     4.44129000     0.08047060    -1.68010000    -1.42819000      -1      -1      -1      -1      -1      -1      -1      -1      -1
