LAMMPS (2 Aug 2023 - Update 4)
  using 1 OpenMP thread(s) per MPI task
# ================= Initialization =================
units           metal
dimension       3
boundary        p p p
atom_style      atomic

# Kokkos full neighbor list requires newton off.
read_data       ../../model.data
Reading data file ...
  orthogonal box = (0 0 0) to (22.832 23.476 24.775)
  1 by 1 by 1 MPI processor grid
  reading atoms ...
  640 atoms
  read_data CPU = 0.017 seconds
mass    1 238.02891   # U

# ================= NEP potential =================
pair_style      nep
pair_coeff      * * ../../nep.txt U

neighbor        2.0 bin
neigh_modify    delay 0 every 1 check yes

# ================= MD settings =================
timestep        0.001      # units metal: 0.001 ps = 1 fs
variable        T equal 300.0

velocity        all create ${T} 12345 mom yes rot yes dist gaussian
velocity        all create 300 12345 mom yes rot yes dist gaussian

# ================= NPT =================
fix             1 all npt temp ${T} ${T}  0.1 aniso 0.0 0.0 1.0
fix             1 all npt temp 300 ${T}  0.1 aniso 0.0 0.0 1.0
fix             1 all npt temp 300 300  0.1 aniso 0.0 0.0 1.0

compute    allPe   all   pe
compute    myVirial all pressure NULL virial
variable   N_total equal count(all)
variable   pe_peratom equal c_allPe/v_N_total
variable   W_xx  equal c_myVirial[1]/v_N_total
variable   W_yy  equal c_myVirial[2]/v_N_total
variable   W_zz  equal c_myVirial[3]/v_N_total
variable   W_xy  equal c_myVirial[4]/v_N_total
variable   W_xz  equal c_myVirial[5]/v_N_total
variable   W_yz  equal c_myVirial[6]/v_N_total

# ================= Output =================
thermo          1
thermo_style    custom step temp v_pe_peratom v_W_xx v_W_yy v_W_zz v_W_xy v_W_xz v_W_yz

dump            1 all custom 1 lammps.dump id type x y z fx fy fz vx vy vz
dump_modify     1 sort id


# ================= Run =================
run             500
Neighbor list info ...
  update: every = 1 steps, delay = 0 steps, check = yes
  max neighbors/atom: 2000, page size: 100000
  master list distance cutoff = 7.5
  ghost atom cutoff = 7.5
  binsize = 3.75, bins = 7 7 7
  1 neighbor lists, perpetual/occasional/extra = 1 0 0
  (1) pair nep, perpetual
      attributes: full, newton on
      pair build: full/bin/atomonly
      stencil: full/bin/3d
      bin: standard
Per MPI rank memory allocation (min/avg/max) = 3.141 | 3.141 | 3.141 Mbytes
   Step          Temp       v_pe_peratom      v_W_xx         v_W_yy         v_W_zz         v_W_xy         v_W_xz         v_W_yz    
         0   300           -8.3555553      111.91601      66.084961      130.49811     -1.0104698e-14  4.6012202e-15 -0.020895437  
         1   299.73387     -8.3555686      111.79645      65.977032      130.34473      0.0032115844  -0.00032845056 -0.021940996  
         2   299.31746     -8.3556571      111.41675      65.6818        129.83006      0.0064486707  -0.0006910462  -0.029797282  
         3   298.75194     -8.3558196      110.77789      65.20018       128.95578      0.0096988698  -0.0010842758  -0.044352069  
         4   298.03901     -8.3560541      109.88392      64.534103      127.72656      0.013485421   -0.002603045   -0.066310184  
         5   297.18118     -8.3563577      108.74176      63.686478      126.14994      0.016505623   -0.0025910678  -0.09715372   
         6   296.18154     -8.3567268      107.35694      62.660414      124.23308      0.018943098   -0.0014276082  -0.13752569   
         7   295.0436      -8.3571568      105.7354       61.45954       121.984        0.022274393   -0.0021503496  -0.187887     
         8   293.77121     -8.3576428      103.88465      60.088219      119.41259      0.02470082    -0.0011331996  -0.24896674   
         9   292.36885     -8.3581788      101.81499      58.5517        116.53156      0.026542207    0.003414558   -0.32114336   
        10   290.84155     -8.3587586      99.532265      56.854891      113.35074      0.029987328    0.008251082   -0.40339002   
        11   289.1944      -8.3593753      97.040241      55.002859      109.87894      0.034260116    0.011300854   -0.49316334   
        12   287.43292     -8.3600214      94.356847      53.003559      106.1364       0.040060157    0.015706151   -0.58913166   
        13   285.56344     -8.3606894      91.499518      50.865114      102.14361      0.046443298    0.022910722   -0.69237118   
        14   283.59286     -8.3613715      88.481516      48.595479      97.9186        0.056440013    0.034440586   -0.80033633   
        15   281.52836     -8.3620597      85.314869      46.202704      93.478722      0.065629594    0.042395199   -0.90971828   
        16   279.37716     -8.3627461      82.009953      43.69488       88.840674      0.077398507    0.050855589   -1.0230685    
        17   277.14642     -8.3634226      78.583164      41.081546      84.026233      0.091397198    0.056240042   -1.13989      
        18   274.84337     -8.3640814      75.050107      38.372416      79.056644      0.10495967     0.065894093   -1.2559788    
        19   272.47515     -8.3647149      71.417648      35.57594       73.947033      0.11759117     0.08526445    -1.3715076    
        20   270.04851     -8.3653157      67.691282      32.70059       68.711657      0.12844944     0.099868172   -1.4836533    
        21   267.57024     -8.3658767      63.892348      29.757785      63.376871      0.13916315     0.10917342    -1.5868695    
        22   265.0471      -8.3663916      60.028548      26.75682       57.958949      0.14965515     0.11075294    -1.6825347    
        23   262.48549     -8.3668545      56.117372      23.708795      52.481666      0.15465959     0.10873164    -1.7711999    
        24   259.89137     -8.36726        52.161188      20.622455      46.957046      0.15659796     0.10382394    -1.8530652    
        25   257.27024     -8.3676036      48.168302      17.507453      41.401441      0.15932982     0.10124368    -1.9286437    
        26   254.62726     -8.3678812      44.150978      14.374134      35.833983      0.16441538     0.10405972    -1.9995547    
        27   251.96741     -8.3680898      40.129138      11.234078      30.279244      0.16888544     0.10768341    -2.0621772    
        28   249.29552     -8.3682272      36.115402      8.0977741      24.756188      0.17358809     0.1143511     -2.1163894    
        29   246.61612     -8.368292       32.121843      4.975287       19.282405      0.1801184      0.12255886    -2.1603295    
        30   243.93352     -8.3682838      28.155667      1.8755206      13.871415      0.18328649     0.12654859    -2.1935787    
        31   241.25179     -8.368203       24.228173     -1.1919607      8.539734       0.18729205     0.13262841    -2.2166045    
        32   238.5747      -8.3680506      20.344895     -4.2183422      3.2986594      0.19128025     0.13629874    -2.2311215    
        33   235.90573     -8.3678286      16.51497      -7.195004      -1.8385128      0.19537914     0.13663256    -2.2383087    
        34   233.24812     -8.3675394      12.748017     -10.114309     -6.8589473      0.20021317     0.13707495    -2.2373566    
        35   230.60488     -8.3671864      9.0556564     -12.968232     -11.748656      0.20323913     0.13863982    -2.2277697    
        36   227.97881     -8.3667733      5.4448994     -15.749758     -16.49775       0.20783073     0.14178256    -2.2104776    
        37   225.37247     -8.3663045      1.9228547     -18.452372     -21.096864      0.21270324     0.14579037    -2.1847897    
        38   222.78834     -8.3657849     -1.5024506     -21.069798     -25.537395      0.21558521     0.14809495    -2.1514464    
        39   220.22866     -8.3652194     -4.826072      -23.596685     -29.813009      0.21848928     0.1502168     -2.1108864    
        40   217.69541     -8.3646135     -8.0419813     -26.027972     -33.916536      0.22143055     0.15264643    -2.0641278    
        41   215.19033     -8.3639728     -11.146517     -28.359059     -37.843526      0.22486358     0.15602568    -2.0112813    
        42   212.71505     -8.3633029     -14.135328     -30.585969     -41.590249      0.22859152     0.16055681    -1.9537053    
        43   210.27105     -8.3626094     -17.001667     -32.705123     -45.151963      0.23162293     0.16450739    -1.8905273    
        44   207.85965     -8.3618981     -19.740771     -34.712445     -48.524164      0.23475853     0.16890254    -1.8218498    
        45   205.48199     -8.3611745     -22.35196      -36.606388     -51.706382      0.23715832     0.17200813    -1.7480368    
        46   203.139       -8.360444      -24.832829     -38.385582     -54.697813      0.23884685     0.17458272    -1.6694496    
        47   200.83146     -8.3597118     -27.183413     -40.04887      -57.49875       0.24076675     0.1779244     -1.5870327    
        48   198.55999     -8.3589827     -29.400998     -41.594607     -60.108489      0.24303033     0.18216636    -1.5008969    
        49   196.32507     -8.3582615     -31.484318     -43.022148     -62.527528      0.24590604     0.18664274    -1.411155     
        50   194.12707     -8.3575525     -33.433305     -44.331222     -64.757503      0.2493906      0.19097583    -1.3183936    
        51   191.96629     -8.3568595     -35.24584      -45.521425     -66.799351      0.25374671     0.19587906    -1.2226667    
        52   189.84295     -8.3561864     -36.920741     -46.592461     -68.654508      0.25939152     0.20055302    -1.1242458    
        53   187.75715     -8.3555363     -38.462222     -47.545574     -70.326247      0.26494139     0.20546429    -1.0231611    
        54   185.7088      -8.3549122     -39.87102      -48.381206     -71.817399      0.27001067     0.21078078    -0.91995661   
        55   183.69774     -8.3543165     -41.148037     -49.100339     -73.130286      0.27509126     0.21617084    -0.81437865   
        56   181.72375     -8.3537516     -42.29423      -49.703843     -74.267986      0.28037392     0.2211331     -0.70695671   
        57   179.78649     -8.353219      -43.311969     -50.193113     -75.233816      0.28533842     0.22592668    -0.59812577   
        58   177.88561     -8.3527203     -44.2021       -50.569269     -76.030785      0.28987298     0.23058913    -0.48805621   
        59   176.02068     -8.3522567     -44.9666       -50.833978     -76.662099      0.29420724     0.23543472    -0.37686016   
        60   174.19123     -8.3518287     -45.60739      -50.988809     -77.1311        0.29796674     0.24019189    -0.26464855   
        61   172.39678     -8.351437      -46.127492     -51.035469     -77.441837      0.30129436     0.24525386    -0.15152976   
        62   170.63678     -8.3510817     -46.529295     -50.975694     -77.597775      0.30501        0.24982705    -0.037708979  
        63   168.9107      -8.3507626     -46.815409     -50.811303     -77.602617      0.30925015     0.25424382     0.07674956   
        64   167.218       -8.3504794     -46.988825     -50.544451     -77.46027       0.31371283     0.25860227     0.19171137   
        65   165.55818     -8.3502314     -47.05148      -50.177132     -77.174101      0.31847554     0.26251829     0.30706625   
        66   163.93077     -8.3500178     -47.006123     -49.711486     -76.747749      0.32348891     0.26641953     0.4226051    
        67   162.33536     -8.3498374     -46.855226     -49.1494       -76.184841      0.32827395     0.27070208     0.53827691   
        68   160.77161     -8.349689      -46.601422     -48.493074     -75.48891       0.33304091     0.27469462     0.65403026   
        69   159.23923     -8.3495712     -46.247692     -47.744849     -74.664089      0.33796373     0.27831999     0.76973867   
        70   157.73808     -8.3494823     -45.797025     -46.907269     -73.714266      0.34271779     0.28193004     0.88517109   
        71   156.26808     -8.3494206     -45.252256     -45.98276      -72.643266      0.34719725     0.28557718     1.0002825    
        72   154.82927     -8.3493843     -44.616639     -44.973901     -71.455155      0.35178498     0.28920787     1.1150918    
        73   153.42181     -8.3493714     -43.892474     -43.883217     -70.15328       0.35614438     0.29275905     1.2294354    
        74   152.04597     -8.3493798     -43.083267     -42.713515     -68.741808      0.36024442     0.2963156      1.343249     
        75   150.70211     -8.3494076     -42.19161      -41.467461     -67.224489      0.36443825     0.29907765     1.4565221    
        76   149.39072     -8.3494525     -41.221124     -40.148053     -65.605671      0.36858103     0.30196414     1.5689056    
        77   148.1124      -8.3495123     -40.174313     -38.75796      -63.888972      0.37297239     0.30491349     1.6804896    
        78   146.86785     -8.3495849     -39.055333     -37.300438     -62.079487      0.37736516     0.30813351     1.7913817    
        79   145.65791     -8.349668      -37.866715     -35.778455     -60.181149      0.38143474     0.31150347     1.9012128    
        80   144.48347     -8.3497597     -36.611624     -34.195274     -58.19799       0.3854294      0.3149699      2.0094968    
        81   143.3455      -8.3498576     -35.294145     -32.554118     -56.134898      0.38928217     0.31846714     2.1163379    
        82   142.24507     -8.3499598     -33.918789     -30.858738     -53.997377      0.39312063     0.32168224     2.2221321    
        83   141.18329     -8.3500644     -32.487406     -29.112375     -51.788861      0.39672803     0.3253688      2.3264121    
        84   140.16129     -8.3501693     -31.003779     -27.318643     -49.514295      0.40003844     0.32955872     2.4294271    
        85   139.18025     -8.3502728     -29.47208      -25.481199     -47.17896       0.40350167     0.33432783     2.5308877    
        86   138.24142     -8.3503731     -27.896614     -23.603865     -44.788393      0.40714424     0.33909475     2.6306679    
        87   137.34602     -8.3504689     -26.280923     -21.690725     -42.347573      0.41111237     0.34363162     2.7288236    
        88   136.49529     -8.3505585     -24.629445     -19.745788     -39.862027      0.4149152      0.34862592     2.8253224    
        89   135.69047     -8.3506407     -22.945349     -17.772783     -37.336461      0.41874734     0.35430157     2.9202057    
        90   134.93272     -8.3507144     -21.232489     -15.775467     -34.776174      0.42278221     0.35950813     3.0137022    
        91   134.22323     -8.3507785     -19.495017     -13.758348     -32.186855      0.42670378     0.36488231     3.1060039    
        92   133.56313     -8.3508324     -17.73808      -11.725996     -29.574904      0.43030702     0.37082123     3.1969404    
        93   132.95351     -8.3508752     -15.965646     -9.6823831     -26.945472      0.43368782     0.37643593     3.2868417    
        94   132.39541     -8.3509064     -14.181837     -7.6322551     -24.304402      0.43762465     0.38200601     3.375643     
        95   131.88976     -8.3509259     -12.390594     -5.5799278     -21.657091      0.44131035     0.38819713     3.462806     
        96   131.43744     -8.3509333     -10.59658      -3.5298982     -19.009662      0.44506136     0.39394242     3.5486565    
        97   131.03927     -8.3509287     -8.8039774     -1.4865703     -16.367846      0.44866933     0.39931073     3.6334215    
        98   130.69599     -8.3509122     -7.0173255      0.54596012    -13.737689      0.45217153     0.40459377     3.7167025    
        99   130.40824     -8.3508841     -5.2408116      2.5630932     -11.12471       0.4557994      0.40959766     3.7985663    
       100   130.17657     -8.3508449     -3.4777083      4.5608715     -8.5337059      0.45967681     0.41408036     3.8790022    
       101   130.00142     -8.3507951     -1.7316091      6.5348289     -5.9700321      0.46351504     0.41796267     3.9585079    
       102   129.88311     -8.3507355     -0.0057261341   8.4807811     -3.4386091      0.46717112     0.42053014     4.0368125    
       103   129.82188     -8.3506668      1.6959929      10.394532     -0.94452806     0.47046549     0.42265257     4.1136462    
       104   129.81776     -8.3505899      3.3719383      12.272464      1.5086662      0.47416297     0.42349448     4.1879401    
       105   129.87069     -8.3505059      5.0156877      14.110026      3.9139231      0.47782497     0.42502688     4.2611437    
       106   129.98054     -8.3504157      6.6233824      15.903264      6.2664198      0.48118669     0.42670623     4.3332547    
       107   130.14702     -8.3503206      8.1917523      17.648414      8.5612817      0.48430239     0.4282349      4.4042539    
       108   130.36976     -8.3502218      9.7175774      19.342143      10.794228      0.4869643      0.42928618     4.4741893    
       109   130.64825     -8.3501205      11.196982      20.980786      12.960362      0.48924774     0.43086198     4.542947     
       110   130.98188     -8.3500179      12.627151      22.560824      15.055667      0.49145454     0.43225561     4.6107337    
       111   131.36989     -8.3499154      14.005906      24.079213      17.077         0.494008       0.43256        4.6772095    
       112   131.81137     -8.3498143      15.330653      25.532952      19.020911      0.49669469     0.43209798     4.7428126    
       113   132.30531     -8.3497158      16.597368      26.918826      20.882711      0.49939288     0.43116911     4.8074565    
       114   132.85061     -8.3496212      17.803479      28.234125      22.659212      0.50220962     0.43089098     4.8712572    
       115   133.44602     -8.3495316      18.947644      29.476537      24.34793       0.50488184     0.43131271     4.9337969    
       116   134.0902      -8.3494483      20.026959      30.64366       25.945609      0.50782468     0.43227883     4.9957201    
       117   134.78168     -8.3493724      21.039353      31.733329      27.449651      0.51096635     0.43289945     5.0566861    
       118   135.5189      -8.3493049      21.982917      32.74362       28.857648      0.51413584     0.43275578     5.1165891    
       119   136.3002      -8.3492468      22.855641      33.672777      30.167323      0.51737043     0.43217709     5.1753671    
       120   137.12383     -8.3491989      23.656584      34.519417      31.37729       0.52075813     0.43080234     5.2330012    
       121   137.98795     -8.3491621      24.384371      35.282205      32.486002      0.52393382     0.42888516     5.2897029    
       122   138.89065     -8.3491371      25.038429      35.960153      33.492636      0.52678175     0.42624298     5.3454106    
       123   139.82996     -8.3491244      25.61823       36.552527      34.396605      0.52917667     0.42385157     5.3996269    
       124   140.8038      -8.3491245      26.122471      37.058636      35.19656       0.53163501     0.42109551     5.4526563    
       125   141.81007     -8.3491379      26.550617      37.478037      35.892063      0.53424171     0.41811518     5.5045156    
       126   142.84657     -8.3491647      26.902617      37.810564      36.483188      0.53712398     0.41461278     5.5550404    
       127   143.91111     -8.3492052      27.178506      38.056293      36.970027      0.54003438     0.41050834     5.6042421    
       128   145.00144     -8.3492593      27.378498      38.21553       37.3531        0.54272144     0.40620157     5.6518214    
       129   146.11536     -8.349327       27.503222      38.288783      37.633342      0.5449956      0.40281476     5.697716     
       130   147.25065     -8.3494082      27.55305       38.276686      37.811737      0.54762097     0.3997787      5.7421288    
       131   148.40505     -8.3495025      27.528284      38.180131      37.888902      0.55010975     0.39656949     5.7850087    
       132   149.57628     -8.3496096      27.429483      38.000128      37.865967      0.55252462     0.39363162     5.8260823    
       133   150.7621      -8.349729       27.257504      37.737937      37.744421      0.55491648     0.3907508      5.8653079    
       134   151.96028     -8.3498601      27.013803      37.395055      37.52639       0.5570569      0.38769588     5.9025577    
       135   153.16863     -8.3500021      26.700471      36.973305      37.214384      0.55902795     0.3842971      5.9377943    
       136   154.385       -8.3501545      26.319789      36.474797      36.810752      0.56086582     0.3813284      5.9712078    
       137   155.60728     -8.3503164      25.872768      35.901303      36.317749      0.56200311     0.37832664     6.002684     
       138   156.83339     -8.3504868      25.36148       35.255034      35.737843      0.56284478     0.37598193     6.0321361    
       139   158.06133     -8.3506648      24.787833      34.538346      35.074236      0.56298053     0.37497959     6.0591501    
       140   159.28913     -8.3508495      24.152729      33.753392      34.329189      0.56285225     0.37450823     6.0837674    
       141   160.51487     -8.3510398      23.458594      32.902803      33.505963      0.56243002     0.37415901     6.1061927    
       142   161.73669     -8.3512346      22.707596      31.989186      32.60751       0.56152761     0.37396363     6.1262713    
       143   162.95278     -8.3514328      21.901834      31.01544       31.637037      0.56045069     0.37350368     6.1440533    
       144   164.1614      -8.3516332      21.043828      29.984435      30.598409      0.55937969     0.37350756     6.159457     
       145   165.36092     -8.3518349      20.136302      28.899236      29.495499      0.55846915     0.37390062     6.1724352    
       146   166.54982     -8.3520365      19.183355      27.763446      28.332454      0.55805813     0.3728431      6.1822281    
       147   167.7267      -8.3522371      18.187918      26.580293      27.113261      0.55772903     0.37201322     6.1891142    
       148   168.89022     -8.3524356      17.15275       25.352954      25.841963      0.55718518     0.3723817      6.1933217    
       149   170.03908     -8.3526309      16.080964      24.084721      24.522758      0.55630206     0.37214249     6.1950328    
       150   171.17204     -8.352822       14.975284      22.778965      23.159854      0.55511441     0.37190839     6.1942674    
       151   172.28791     -8.3530078      13.837923      21.438967      21.756656      0.55392926     0.37175984     6.1905196    
       152   173.38558     -8.3531875      12.67259       20.068311      20.317711      0.55277029     0.37129361     6.1837431    
       153   174.46408     -8.3533603      11.482074      18.67047       18.846774      0.55128689     0.3702929      6.1740918    
       154   175.52245     -8.3535251      10.269885      17.249047      17.348245      0.55013832     0.36832297     6.1611166    
       155   176.55984     -8.3536815      9.0388504      15.807459      15.826305      0.54883845     0.36704151     6.1450422    
       156   177.57546     -8.3538285      7.7910874      14.348817      14.284504      0.5476302      0.36612348     6.1261337    
       157   178.56862     -8.3539658      6.5304048      12.876847      12.727209      0.54665008     0.36483228     6.1041858    
       158   179.53871     -8.3540927      5.2605804      11.395077      11.159219      0.54532149     0.36408722     6.0794071    
       159   180.48517     -8.3542087      3.9843942      9.9067606      9.5847726      0.5441853      0.36307964     6.0520115    
       160   181.40752     -8.3543137      2.7060619      8.4155407      8.0082824      0.54358496     0.3619538      6.0215759    
       161   182.30536     -8.3544072      1.4276211      6.9245669      6.4324556      0.54266491     0.36065612     5.9881619    
       162   183.17838     -8.3544892      0.1526807      5.43711        4.8620699      0.54096181     0.36014078     5.9511843    
       163   184.02633     -8.3545594     -1.1172818      3.9558778      3.3003743      0.53889148     0.35940521     5.9111856    
       164   184.84899     -8.354618      -2.3780483      2.4843         1.7513633      0.53686282     0.35881958     5.8682463    
       165   185.64623     -8.3546649     -3.6260042      1.0255002      0.21941822     0.53361719     0.35887696     5.8217567    
       166   186.41799     -8.3547004     -4.8595061     -0.41779026    -1.2929106      0.53049199     0.35829499     5.7721782    
       167   187.16423     -8.3547245     -6.0755658     -1.8426981     -2.7817585      0.52742174     0.35762903     5.7193202    
       168   187.88496     -8.3547377     -7.2705278     -3.2463151     -4.2431383      0.52480863     0.35620334     5.6628409    
       169   188.58029     -8.3547403     -8.4429316     -4.6261267     -5.6746815      0.52230014     0.35471916     5.6035847    
       170   189.25029     -8.3547326     -9.5922053     -5.9801868     -7.074477       0.51966545     0.3530053      5.5415545    
       171   189.89504     -8.3547152     -10.71411      -7.3057462     -8.4385896      0.5168345      0.35040302     5.4765732    
       172   190.51471     -8.3546885     -11.80692      -8.6005272     -9.7647267      0.51352923     0.34724848     5.4089412    
       173   191.10947     -8.3546531     -12.868494     -9.8624349     -11.050136      0.51021455     0.34307746     5.338815     
       174   191.67952     -8.3546096     -13.896346     -11.089236     -12.291981      0.50618579     0.33919899     5.265848     
       175   192.22507     -8.3545585     -14.890137     -12.279447     -13.488837      0.50172774     0.33482414     5.19054      
       176   192.74632     -8.3545006     -15.847936     -13.431112     -14.638714      0.49690831     0.33026663     5.1129965    
       177   193.2436      -8.3544365     -16.765495     -14.542034     -15.737703      0.4918691      0.32516951     5.0333322    
       178   193.71728     -8.3543668     -17.642352     -15.610809     -16.785096      0.48671485     0.3192819      4.9515181    
       179   194.16769     -8.3542923     -18.477897     -16.636142     -17.779657      0.48152781     0.31268306     4.8673922    
       180   194.59517     -8.3542136     -19.271132     -17.616723     -18.719284      0.47639233     0.30560483     4.7806589    
       181   195.0001      -8.3541314     -20.02037      -18.551256     -19.602588      0.47093836     0.29857062     4.6915666    
       182   195.38284     -8.3540464     -20.72438      -19.438737     -20.42806       0.46574019     0.29081998     4.6003349    
       183   195.74378     -8.3539592     -21.383173     -20.278418     -21.195329      0.46087343     0.28286312     4.5071624    
       184   196.08327     -8.3538704     -21.995671     -21.06943      -21.903246      0.45638979     0.27510903     4.412224     
       185   196.40172     -8.3537806     -22.559557     -21.810582     -22.54963       0.45243278     0.26838911     4.3154593    
       186   196.69955     -8.3536904     -23.075827     -22.501638     -23.134761      0.44882013     0.26195786     4.2171554    
       187   196.9772      -8.3536003     -23.54364      -23.141983     -23.658158      0.4453649      0.25541932     4.117166     
       188   197.23509     -8.3535109     -23.959967     -23.730531     -24.118166      0.44190282     0.24880984     4.0158913    
       189   197.47363     -8.3534225     -24.325312     -24.267277     -24.514228      0.43813761     0.24187901     3.9129642    
       190   197.69326     -8.3533355     -24.640608     -24.75232      -24.847125      0.43446998     0.23489742     3.8086473    
       191   197.89442     -8.3532505     -24.904812     -25.185127     -25.116372      0.4307001      0.2283752      3.7027031    
       192   198.07753     -8.3531675     -25.118211     -25.565864     -25.321844      0.42670359     0.22229883     3.5953373    
       193   198.24306     -8.3530871     -25.280762     -25.894677     -25.463719      0.42259381     0.21586881     3.486816     
       194   198.3915      -8.3530093     -25.392835     -26.171757     -25.542446      0.41849398     0.20944776     3.3775367    
       195   198.52329     -8.3529343     -25.453091     -26.39705      -25.557208      0.41454439     0.20344911     3.2679931    
       196   198.63887     -8.3528623     -25.463266     -26.571203     -25.509487      0.41057354     0.19745033     3.1575357    
       197   198.73877     -8.3527933     -25.423187     -26.694635     -25.399693      0.40645421     0.19122751     3.0464219    
       198   198.82342     -8.3527275     -25.331957     -26.767727     -25.22724       0.40201225     0.18367687     2.9349131    
       199   198.89332     -8.3526647     -25.192073     -26.791347     -24.99427       0.39794233     0.17628291     2.8229279    
       200   198.94909     -8.3526049     -25.003965     -26.766155     -24.701619      0.39429874     0.16908683     2.710546     
       201   198.99132     -8.3525481     -24.767176     -26.692711     -24.349359      0.39145075     0.16305789     2.5983117    
       202   199.02054     -8.352494      -24.482754     -26.572002     -23.938657      0.38886368     0.1576797      2.4865754    
       203   199.03735     -8.3524427     -24.152307     -26.405197     -23.471362      0.38616111     0.15224264     2.3748816    
       204   199.04244     -8.3523938     -23.776808     -26.193321     -22.948523      0.38414334     0.14722099     2.2633829    
       205   199.0365      -8.3523471     -23.357175     -25.937548     -22.371305      0.38223469     0.14259193     2.1522041    
       206   199.02026     -8.3523025     -22.895073     -25.639117     -21.741942      0.37998627     0.13794826     2.0412024    
       207   198.99446     -8.3522596     -22.390537     -25.299049     -21.061045      0.37734683     0.13276373     1.9306705    
       208   198.95986     -8.3522181     -21.845397     -24.919002     -20.330623      0.37519117     0.1278422      1.8207172    
       209   198.91728     -8.3521779     -21.261185     -24.500257     -19.552224      0.37265252     0.12236336     1.7115049    
       210   198.86745     -8.3521385     -20.636725     -24.043566     -18.725771      0.37067883     0.11720412     1.6033146    
       211   198.8111      -8.3520996     -19.974636     -23.551103     -17.854533      0.36862873     0.11211682     1.4955498    
       212   198.74912     -8.3520609     -19.279129     -23.024994     -16.942242      0.36646468     0.10698306     1.3884194    
       213   198.68252     -8.3520222     -18.550719     -22.466667     -15.990275      0.36428956     0.10278842     1.2819659    
       214   198.61234     -8.3519832     -17.790832     -21.877915     -15.000411      0.36233563     0.099078843    1.1767581    
       215   198.53957     -8.3519435     -17.000767     -21.260472     -13.974752      0.36034942     0.096341466    1.0728125    
       216   198.46518     -8.3519029     -16.182324     -20.616123     -12.915711      0.35811434     0.095339153    0.96989783   
       217   198.39017     -8.3518612     -15.33716      -19.946771     -11.82539       0.35537382     0.094646002    0.86790886   
       218   198.31558     -8.351818      -14.46708      -19.254325     -10.706169      0.35249551     0.093941871    0.76749708   
       219   198.24252     -8.3517732     -13.57504      -18.541017     -9.5612437      0.34941805     0.092777343    0.66832314   
       220   198.17213     -8.3517266     -12.662882     -17.808744     -8.393458       0.34637665     0.090867438    0.5707111    
       221   198.10562     -8.3516781     -11.734237     -17.059945     -7.206367       0.34349124     0.089121587    0.47447454   
       222   198.04425     -8.3516276     -10.790001     -16.296365     -6.0019316      0.34094027     0.086524443    0.37974015   
       223   197.98925     -8.351575      -9.8316726     -15.520123     -4.7822144      0.33828725     0.082666825    0.28689228   
       224   197.94188     -8.3515202     -8.8623676     -14.733541     -3.5507859      0.33567949     0.078296807    0.19572727   
       225   197.90342     -8.3514633     -7.8837988     -13.938639     -2.3102137      0.3335198      0.074658365    0.10663484   
       226   197.87519     -8.3514043     -6.8992462     -13.137901     -1.0638477      0.33168788     0.070857313    0.018843506  
       227   197.85854     -8.3513433     -5.9117256     -12.333608      0.18485063     0.32996793     0.067234196   -0.067465298  
       228   197.85483     -8.3512804     -4.9221684     -11.527648      1.4336674      0.32820186     0.063930387   -0.15235108   
       229   197.86538     -8.3512157     -3.9322856     -10.722016      2.6799163      0.32619817     0.059580239   -0.23565998   
       230   197.89151     -8.3511495     -2.9440842     -9.9186577      3.9210333      0.32353498     0.054094137   -0.31727753   
       231   197.93459     -8.351082      -1.9610353     -9.1201655      5.1536783      0.32063017     0.048287554   -0.39745302   
       232   197.99596     -8.3510134     -0.98406735    -8.328407       6.3754824      0.31789704     0.042843147   -0.47692069   
       233   198.07692     -8.350944      -0.016913648   -7.5457686      7.5827305      0.31530602     0.037972512   -0.55473394   
       234   198.17876     -8.3508742      0.9387372     -6.7742206      8.7731323      0.31275797     0.033750995   -0.63054372   
       235   198.30271     -8.3508043      1.8808233     -6.0156705      9.9435356      0.31052421     0.030822564   -0.70468396   
       236   198.45006     -8.3507347      2.8080041     -5.2718612      11.091991      0.30846159     0.029194879   -0.77689009   
       237   198.62205     -8.3506658      3.7170626     -4.5448768      12.215199      0.30574663     0.027316508   -0.84751557   
       238   198.81985     -8.3505979      4.606382      -3.8365276      13.310676      0.30249688     0.024426699   -0.91612447   
       239   199.04461     -8.3505316      5.4737979     -3.1487462      14.375717      0.29920957     0.021470625   -0.98309663   
       240   199.29742     -8.3504672      6.3184476     -2.4828241      15.408676      0.29596794     0.019034806   -1.0485726    
       241   199.57933     -8.3504052      7.1383322     -1.8403552      16.407071      0.29269487     0.017859261   -1.1131058    
       242   199.89128     -8.3503461      7.9310251     -1.2232618      17.36779       0.28950939     0.016471778   -1.1763388    
       243   200.23415     -8.3502903      8.6960615     -0.63275233     18.289575      0.28636299     0.015751671   -1.2383062    
       244   200.60874     -8.3502381      9.4293978     -0.070840427    19.168993      0.28370095     0.015173557   -1.2988549    
       245   201.01583     -8.3501901      10.130067      0.46127941     20.004434      0.28094874     0.015918377   -1.358303     
       246   201.45609     -8.3501467      10.797682      0.96261062     20.794703      0.27781572     0.018329509   -1.4166602    
       247   201.93014     -8.3501082      11.429185      1.431678       21.536716      0.27451559     0.020770399   -1.473822     
       248   202.43855     -8.3500751      12.023733      1.8676471      22.228878      0.27118176     0.022642375   -1.5301505    
       249   202.98177     -8.3500477      12.580371      2.2695489      22.870187      0.26798238     0.024704773   -1.5857766    
       250   203.56016     -8.3500263      13.09897       2.6369536      23.459029      0.26486493     0.027284474   -1.6402649    
       251   204.17398     -8.3500112      13.578085      2.9688539      23.994478      0.26197347     0.029734752   -1.6936677    
       252   204.82337     -8.3500027      14.017643      3.2647537      24.476207      0.25986548     0.032678357   -1.7453804    
       253   205.50837     -8.350001       14.415261      3.5240689      24.901961      0.25771877     0.035005702   -1.7962286    
       254   206.22898     -8.3500064      14.769918      3.7460984      25.270694      0.25538362     0.037148538   -1.8462151    
       255   206.98507     -8.3500189      15.08206       3.9310323      25.582425      0.25309115     0.039958689   -1.8955785    
       256   207.77637     -8.3500387      15.352069      4.0787799      25.836967      0.25094307     0.043586223   -1.9444385    
       257   208.60243     -8.3500658      15.579042      4.1891704      26.034171      0.24949795     0.046813782   -1.9925021    
       258   209.46276     -8.3501002      15.762326      4.2618863      26.173224      0.2485643      0.050574649   -2.0396322    
       259   210.35674     -8.350142       15.901419      4.2970454      26.253515      0.24769617     0.054039416   -2.0860699    
       260   211.28364     -8.350191       15.997426      4.2950649      26.275815      0.24666418     0.058234585   -2.1315138    
       261   212.2426      -8.3502471      16.049762      4.2560829      26.240035      0.24542297     0.062515928   -2.1767533    
       262   213.23268     -8.3503103      16.059361      4.1806943      26.147335      0.24468259     0.065977979   -2.2215423    
       263   214.25278     -8.3503801      16.026344      4.0694181      25.998056      0.24432129     0.069355069   -2.2659132    
       264   215.30175     -8.3504566      15.950232      3.9228039      25.791709      0.24417193     0.073006465   -2.3097868    
       265   216.37833     -8.3505392      15.831415      3.7414439      25.529257      0.24438287     0.077129234   -2.3531331    
       266   217.48113     -8.3506278      15.671102      3.5263228      25.211786      0.24491747     0.080355432   -2.3960779    
       267   218.60871     -8.350722       15.46965       3.2784885      24.840541      0.24544836     0.083093624   -2.4386432    
       268   219.75961     -8.3508213      15.228015      2.9988144      24.416538      0.24579269     0.085112612   -2.4804844    
       269   220.93229     -8.3509255      14.948454      2.6887149      23.942229      0.24549824     0.086518075   -2.5212567    
       270   222.1251      -8.3510339      14.631191      2.3493749      23.418296      0.24449601     0.087991698   -2.5616474    
       271   223.33626     -8.3511463      14.277115      1.9817224      22.846161      0.24304187     0.089524982   -2.601576     
       272   224.56388     -8.351262       13.887985      1.5870982      22.227942      0.24163882     0.092379827   -2.6409341    
       273   225.80606     -8.3513806      13.465523      1.1669637      21.565763      0.24043245     0.096069827   -2.6798609    
       274   227.06088     -8.3515015      13.011442      0.7228418      20.861909      0.23991354     0.098456868   -2.7185169    
       275   228.32642     -8.3516243      12.52673       0.25613624     20.117796      0.23977723     0.099673952   -2.7567011    
       276   229.60075     -8.3517484      12.012238     -0.23175427     19.334958      0.23932        0.099880236   -2.794407     
       277   230.88183     -8.3518733      11.469387     -0.73925863     18.515656      0.23842502     0.09896465    -2.831515     
       278   232.16759     -8.3519984      10.898842     -1.2649956      17.661425      0.23747523     0.097579527   -2.8681985    
       279   233.45587     -8.3521231      10.302756     -1.8071339      16.774886      0.2367142      0.096891396   -2.9040804    
       280   234.74445     -8.3522471      9.6841262     -2.3634978      15.859037      0.23633823     0.097576312   -2.9390369    
       281   236.03112     -8.3523696      9.0429089     -2.9330034      14.915184      0.23573023     0.09832754    -2.9732626    
       282   237.31375     -8.3524903      8.3829081     -3.5135768      13.947053      0.23491446     0.099768372   -3.0067473    
       283   238.59024     -8.3526086      7.7051316     -4.1036372      12.956636      0.23367116     0.10167079    -3.0398408    
       284   239.85844     -8.3527241      7.0106098     -4.7015698      11.945797      0.2320178      0.10359644    -3.0720918    
       285   241.11625     -8.3528362      6.3026003     -5.3053929      10.917906      0.23028945     0.10546631    -3.1035208    
       286   242.36155     -8.3529447      5.5818306     -5.9134814      9.8748606      0.22869028     0.10704676    -3.1337701    
       287   243.59229     -8.353049       4.8497589     -6.5234352      8.8193779      0.22717808     0.10838239    -3.1630998    
       288   244.80647     -8.3531488      4.1080238     -7.1342277      7.7534576      0.22562436     0.10975197    -3.1913385    
       289   246.0021      -8.3532438      3.3594264     -7.7439796      6.6801385      0.22430767     0.11071562    -3.218465     
       290   247.17722     -8.3533336      2.6073815     -8.3507306      5.6030695      0.22280261     0.11011956    -3.2440098    
       291   248.32988     -8.353418       1.8540969     -8.9523744      4.5250844      0.22074559     0.10857717    -3.2672745    
       292   249.45823     -8.3534967      1.1001144     -9.547864       3.4477231      0.21822732     0.10726709    -3.2890479    
       293   250.56039     -8.3535694      0.34808705    -10.135353      2.3736405      0.21484218     0.10581673    -3.3092825    
       294   251.63461     -8.353636      -0.40122114    -10.713541      1.3049222      0.21132331     0.10478957    -3.3278721    
       295   252.67934     -8.3536963     -1.1450723     -11.28061       0.24437885     0.20872887     0.10551246    -3.34429      
       296   253.69307     -8.3537502     -1.8815049     -11.834671     -0.80504756     0.20582474     0.10380735    -3.3588097    
       297   254.67433     -8.3537977     -2.6091101     -12.374566     -1.8412212      0.20321904     0.10177054    -3.3717436    
       298   255.62171     -8.3538386     -3.3263068     -12.899135     -2.862284       0.20090795     0.1000933     -3.3829326    
       299   256.53385     -8.3538729     -4.0321822     -13.407087     -3.8663385      0.19854146     0.098812931   -3.3920687    
       300   257.4095      -8.3539006     -4.7249985     -13.896973     -4.8511723      0.19600211     0.097570146   -3.3993793    
       301   258.24741     -8.3539217     -5.4025355     -14.36743      -5.8142841      0.19324285     0.095521285   -3.4049943    
       302   259.04649     -8.3539363     -6.0645285     -14.817111     -6.7549834      0.19054965     0.093252742   -3.4085378    
       303   259.80583     -8.3539444     -6.7068713     -15.244675     -7.669277       0.18722414     0.092420197   -3.4099565    
       304   260.5246      -8.3539462     -7.3285358     -15.648863     -8.555206       0.18329215     0.092875287   -3.4099096    
       305   261.20201     -8.3539417     -7.9303828     -16.029331     -9.4129752      0.17948113     0.09340597    -3.4075678    
       306   261.83733     -8.353931      -8.5094806     -16.384937     -10.239695      0.17598648     0.09242604    -3.4026185    
       307   262.42995     -8.3539143     -9.0645065     -16.71473      -11.033761      0.17254563     0.091395803   -3.3954355    
       308   262.97932     -8.3538917     -9.5952812     -17.017869     -11.794407      0.16876406     0.090260939   -3.3856032    
       309   263.48496     -8.3538634     -10.100701     -17.293678     -12.520727      0.16478291     0.08841185    -3.3734691    
       310   263.94646     -8.3538295     -10.580428     -17.541663     -13.211602      0.16044235     0.087773721   -3.3592881    
       311   264.36348     -8.3537903     -11.03397      -17.761126     -13.866443      0.15566859     0.087659438   -3.3432015    
       312   264.73574     -8.3537457     -11.46039      -17.951092     -14.483993      0.15062754     0.087317934   -3.324581     
       313   265.0631      -8.3536961     -11.858469     -18.111062     -15.063128      0.14622716     0.086542118   -3.3034958    
       314   265.34559     -8.3536416     -12.227754     -18.240096     -15.602608      0.14164529     0.084058186   -3.2801343    
       315   265.5834      -8.3535824     -12.566851     -18.338254     -16.101681      0.13688817     0.079522827   -3.2544753    
       316   265.77671     -8.3535186     -12.876553     -18.405803     -16.560718      0.13212646     0.074057737   -3.2270108    
       317   265.92572     -8.3534504     -13.15703      -18.442591     -16.979402      0.12758836     0.068718762   -3.1973061    
       318   266.03075     -8.3533779     -13.408378     -18.448427     -17.357644      0.1234967      0.063512395   -3.1653251    
       319   266.0921      -8.3533014     -13.628525     -18.422702     -17.694092      0.11904812     0.058185377   -3.1309651    
       320   266.11016     -8.3532209     -13.818517     -18.365804     -17.989258      0.11462233     0.053264065   -3.0942998    
       321   266.08542     -8.3531366     -13.978008     -18.277337     -18.242848      0.11105803     0.049533886   -3.0552025    
       322   266.01853     -8.3530485     -14.106896     -18.157511     -18.454926      0.1075361      0.046332986   -3.0138224    
       323   265.91027     -8.3529569     -14.205104     -18.006706     -18.625241      0.10357106     0.042805257   -2.9703229    
       324   265.76149     -8.3528618     -14.271769     -17.824799     -18.75358       0.099529037    0.037738249   -2.9247285    
       325   265.57304     -8.3527633     -14.307657     -17.611825     -18.840977      0.095369378    0.03247104    -2.8767878    
       326   265.34592     -8.3526616     -14.31342      -17.368332     -18.887649      0.091306656    0.027189983   -2.8263101    
       327   265.08124     -8.3525568     -14.288774     -17.094924     -18.893783      0.087388458    0.022013558   -2.7736955    
       328   264.78014     -8.3524488     -14.235612     -16.792106     -18.861132      0.083701196    0.017017652   -2.7193312    
       329   264.44381     -8.3523379     -14.153918     -16.460438     -18.789962      0.080197356    0.011786083   -2.6632982    
       330   264.07351     -8.3522241     -14.043016     -16.10037      -18.680141      0.076556263    0.0069560565  -2.6057154    
       331   263.67054     -8.3521074     -13.903718     -15.712688     -18.532707      0.073023511    0.0023516731  -2.5467464    
       332   263.23628     -8.3519879     -13.73591      -15.297995     -18.348038      0.069465466   -0.0010642205  -2.4858727    
       333   262.77219     -8.3518657     -13.54044      -14.856807     -18.127646      0.065577966   -0.004307678   -2.4233216    
       334   262.27981     -8.3517408     -13.319067     -14.389897     -17.873071      0.061107261   -0.0078593122  -2.3591277    
       335   261.76078     -8.3516133     -13.072551     -13.898371     -17.585378      0.056575593   -0.010234633   -2.2934628    
       336   261.21674     -8.3514832     -12.800425     -13.382691     -17.265087      0.052213796   -0.011990127   -2.2263006    
       337   260.64942     -8.3513507     -12.504055     -12.844222     -16.913181      0.048540356   -0.0143352     -2.1575344    
       338   260.06053     -8.3512157     -12.184988     -12.284076     -16.531639      0.045623481   -0.018157897   -2.0877746    
       339   259.45177     -8.3510784     -11.843229     -11.702739     -16.121099      0.042524585   -0.023184887   -2.0162896    
       340   258.82492     -8.3509387     -11.48094      -11.101372     -15.683998      0.039645247   -0.027953613   -1.9429993    
       341   258.18192     -8.3507969     -11.098205     -10.481153     -15.221133      0.037608524   -0.031984647   -1.8678032    
       342   257.52481     -8.3506529     -10.697134     -9.8434947     -14.734629      0.035852434   -0.036447995   -1.7909866    
       343   256.8556      -8.3505069     -10.27821      -9.1893865     -14.225818      0.033785298   -0.04029449    -1.7134027    
       344   256.17636     -8.350359      -9.8419708     -8.5200504     -13.696025      0.031435311   -0.044749412   -1.6345905    
       345   255.4892      -8.3502094     -9.3910169     -7.836997      -13.147762      0.029294394   -0.049148857   -1.5546461    
       346   254.79621     -8.3500581     -8.9258598     -7.1414745     -12.582186      0.027633478   -0.054709383   -1.4738725    
       347   254.09947     -8.3499052     -8.4487387     -6.4348513     -12.001711      0.025786603   -0.060442417   -1.3919651    
       348   253.40107     -8.3497511     -7.9597914     -5.7180843     -11.407425      0.024483013   -0.066069213   -1.3090974    
       349   252.70301     -8.3495957     -7.4602949     -4.9925975     -10.800849      0.023755745   -0.07309098    -1.2259566    
       350   252.00741     -8.3494393     -6.9516959     -4.2597231     -10.18367       0.02203928    -0.080107414   -1.1417844    
       351   251.31654     -8.3492821     -6.4358354     -3.5208965     -9.5582471      0.020596464   -0.088532776   -1.0565907    
       352   250.63272     -8.3491244     -5.9123881     -2.7770655     -8.9255273      0.019377205   -0.096228952   -0.96965376   
       353   249.95834     -8.3489663     -5.3837187     -2.0301049     -8.2878148      0.017985501   -0.10306705    -0.8814585    
       354   249.29572     -8.3488081     -4.8517176     -1.2815621     -7.6473341      0.01679028    -0.1093658     -0.79263933   
       355   248.64713     -8.3486502     -4.3179357     -0.53287201    -7.0059914      0.015559731   -0.1155952     -0.70257611   
       356   248.0149      -8.3484927     -3.7844273      0.2145348     -6.3660051      0.014314906   -0.12201705    -0.6113688    
       357   247.4013      -8.3483361     -3.2514684      0.95945735    -5.7286538      0.013290545   -0.12665984    -0.51889541   
       358   246.80854     -8.3481805     -2.7206017      1.7003672     -5.0959803      0.011805687   -0.13076713    -0.42595268   
       359   246.23875     -8.3480264     -2.1927924      2.4359083     -4.4695666      0.010298667   -0.13555429    -0.33259971   
       360   245.694       -8.3478739     -1.6687695      3.1649257     -3.8508504      0.0092875548  -0.14020252    -0.23832514   
       361   245.17636     -8.3477235     -1.1512431      3.8859627     -3.2424007      0.0079514836  -0.14545841    -0.14322277   
       362   244.68784     -8.3475755     -0.64199987     4.5977202     -2.646454       0.0063626407  -0.15083462    -0.047394075  
       363   244.23036     -8.3474301     -0.1417457      5.298612      -2.0638823      0.0045559949  -0.15613626     0.048521482  
       364   243.80579     -8.3472878      0.34836437     5.9874224     -1.4962282      0.0027122002  -0.1606438      0.14508565   
       365   243.41598     -8.3471489      0.82723071     6.6631347     -0.94512404     0.00082092568 -0.16536044     0.24268802   
       366   243.06281     -8.3470136      1.2922373      7.3239584     -0.4129194     -0.000993239   -0.16978227     0.34091174   
       367   242.74807     -8.3468825      1.7430836      7.9689011      0.099458017   -0.003094247   -0.1734644      0.43990847   
       368   242.4735      -8.3467557      2.178583       8.5969116      0.59015921    -0.0052898071  -0.17657104     0.53957526   
       369   242.24069     -8.3466337      2.5981818      9.2067698      1.058817      -0.008002789   -0.17944446     0.63932953   
       370   242.05123     -8.3465168      3.0014894      9.7975297      1.5043635     -0.011265875   -0.18246681     0.73933881   
       371   241.90657     -8.3464053      3.3881699      10.36853       1.9260122     -0.014575027   -0.18617516     0.83971957   
       372   241.80816     -8.3462995      3.7563978      10.918573      2.3222256     -0.018682759   -0.18994527     0.94031934   
       373   241.75738     -8.3461998      4.1040063      11.446444      2.6911782     -0.022926485   -0.19414416     1.0413132    
       374   241.75539     -8.3461063      4.4323735      11.951681      3.0332061     -0.027961731   -0.1980037      1.1421614    
       375   241.80319     -8.3460194      4.7407248      12.433589      3.3472415     -0.032727737   -0.20141241     1.242867     
       376   241.90173     -8.3459393      5.0269353      12.891058      3.6314428     -0.037436215   -0.20503437     1.343881     
       377   242.05195     -8.3458663      5.29115        13.323283      3.886096      -0.042502749   -0.20779402     1.4455121    
       378   242.25472     -8.3458005      5.5322255      13.729641      4.1096271     -0.047671716   -0.21006129     1.5475087    
       379   242.51076     -8.3457423      5.7502487      14.109596      4.3019046     -0.052462871   -0.21261819     1.6496254    
       380   242.8207      -8.3456916      5.9441515      14.462457      4.4621541     -0.057017176   -0.21554146     1.7518894    
       381   243.18505     -8.3456488      6.115414       14.788061      4.5913619     -0.062061939   -0.21940341     1.8552113    
       382   243.60421     -8.3456139      6.2628047      15.086028      4.6887834     -0.066841804   -0.22196043     1.9591839    
       383   244.07838     -8.3455871      6.3868248      15.356197      4.7546954     -0.072518398   -0.22412571     2.0627272    
       384   244.60763     -8.3455684      6.4861125      15.598003      4.7884742     -0.078403649   -0.22656555     2.1663824    
       385   245.192       -8.3455578      6.5603046      15.811135      4.7898788     -0.084517229   -0.22910272     2.2701607    
       386   245.83143     -8.3455555      6.6104403      15.99571       4.7594496     -0.091576718   -0.2313993      2.3739276    
       387   246.52579     -8.3455613      6.6364609      16.151645      4.6973167     -0.098780249   -0.23250121     2.477838     
       388   247.27484     -8.3455754      6.6392251      16.279337      4.6047235     -0.10555472    -0.23237556     2.5828696    
       389   248.07821     -8.3455977      6.6168072      16.378295      4.4804042     -0.11217796    -0.2317283      2.6882448    
       390   248.93529     -8.345628       6.569827       16.4487        4.3248459     -0.11897973    -0.22982508     2.7932645    
       391   249.84534     -8.3456663      6.5004894      16.491223      4.1398819     -0.12579317    -0.22540762     2.8981897    
       392   250.80755     -8.3457125      6.4094557      16.506267      3.9266173     -0.13150245    -0.22035461     3.0030698    
       393   251.82093     -8.3457665      6.2950803      16.494048      3.6841186     -0.13717154    -0.21490117     3.1073459    
       394   252.88439     -8.3458279      6.1570964      16.454496      3.4124866     -0.14305528    -0.20941304     3.211347     
       395   253.99673     -8.3458967      5.9957267      16.38791       3.112482      -0.14905129    -0.20346306     3.3151404    
       396   255.15666     -8.3459727      5.8113919      16.294733      2.7851082     -0.15489237    -0.19681437     3.4186382    
       397   256.36283     -8.3460555      5.6052764      16.17571       2.4315165     -0.16045787    -0.18987128     3.5216971    
       398   257.61378     -8.346145       5.3788598      16.03158       2.0533224     -0.1658657     -0.1833702      3.6240145    
       399   258.90795     -8.3462408      5.1329347      15.863026      1.6514325     -0.1717657     -0.17730212     3.7255703    
       400   260.24368     -8.3463428      4.8675615      15.670581      1.2264971     -0.17796568    -0.17161573     3.8264157    
       401   261.61921     -8.3464505      4.5841363      15.455048      0.78020985    -0.18444519    -0.16596566     3.9266408    
       402   263.0327      -8.3465638      4.2834619      15.217317      0.31369682    -0.19125519    -0.15955868     4.026166     
       403   264.48231     -8.3466822      3.9671121      14.958314     -0.17097954    -0.19863553    -0.15444883     4.1249967    
       404   265.96613     -8.3468055      3.6359838      14.678932     -0.67280899    -0.20524779    -0.14919464     4.222874     
       405   267.48208     -8.3469333      3.2904553      14.379967     -1.1906101     -0.21132705    -0.14491972     4.319581     
       406   269.02805     -8.3470653      2.9308792      14.062273     -1.723633      -0.21777191    -0.14102994     4.415029     
       407   270.60184     -8.3472011      2.5581022      13.726827     -2.2708403     -0.22464486    -0.13714056     4.5090707    
       408   272.20118     -8.3473404      2.1738302      13.374751     -2.830245      -0.23189064    -0.13351322     4.6014101    
       409   273.82372     -8.3474828      1.7779518      13.006738     -3.4009129     -0.23887902    -0.12974398     4.6922235    
       410   275.46708     -8.3476279      1.3718678      12.623927     -3.9811695     -0.24597073    -0.12633469     4.781386     
       411   277.12883     -8.3477754      0.95732672     12.22753      -4.5690682     -0.25334776    -0.12314264     4.8685599    
       412   278.80647     -8.347925       0.5353076      11.818672     -5.1638499     -0.26129483    -0.1203639      4.9539573    
       413   280.49747     -8.3480762      0.10754643     11.399016     -5.7634518     -0.27002586    -0.11704748     5.0371017    
       414   282.19932     -8.3482287     -0.32372747     10.969365     -6.3652923     -0.27791752    -0.11366304     5.1182789    
       415   283.90957     -8.3483822     -0.75598485     10.53126      -6.9667655     -0.28600382    -0.1127845      5.1971835    
       416   285.62571     -8.3485363     -1.1910627      10.084966     -7.5686095     -0.29448845    -0.11254261     5.2739379    
       417   287.34515     -8.3486908     -1.6273534      9.6319504     -8.1690132     -0.30241246    -0.11337605     5.3477606    
       418   289.06535     -8.3488452     -2.0628794      9.1732492     -8.7659669     -0.30999916    -0.11479174     5.4191598    
       419   290.78381     -8.3489993     -2.4981909      8.7095615     -9.3588521     -0.31703766    -0.11610338     5.488361     
       420   292.49793     -8.3491527     -2.9316013      8.2421846     -9.9460786     -0.32356576    -0.11803113     5.5546653    
       421   294.20514     -8.3493052     -3.3604807      7.7724876     -10.525196     -0.32950068    -0.11972599     5.6176312    
       422   295.90292     -8.3494565     -3.7841591      7.3013678     -11.095259     -0.33566007    -0.12099847     5.6779344    
       423   297.5888      -8.3496062     -4.2017301      6.829746      -11.654834     -0.34202024    -0.12257133     5.7353228    
       424   299.26026     -8.3497542     -4.6136967      6.3583156     -12.203686     -0.34789238    -0.12485463     5.789953     
       425   300.91465     -8.3499001     -5.015934       5.889075      -12.73813      -0.35414437    -0.12920918     5.8415611    
       426   302.54926     -8.3500436     -5.4079386      5.4225899     -13.257545     -0.36178736    -0.13343571     5.8900017    
       427   304.16151     -8.3501846     -5.7906364      4.959631      -13.762091     -0.36958052    -0.13697885     5.9352402    
       428   305.74885     -8.3503226     -6.1639611      4.5013423     -14.25082      -0.3772483     -0.14054058     5.9776852    
       429   307.30875     -8.3504575     -6.5261941      4.0482058     -14.722362     -0.38468529    -0.14443654     6.0173121    
       430   308.83876     -8.350589      -6.8749129      3.6012247     -15.174558     -0.39237168    -0.14716613     6.0533373    
       431   310.33653     -8.3507169     -7.2107823      3.1610574     -15.607301     -0.40027894    -0.14966185     6.0858066    
       432   311.79968     -8.350841      -7.5338651      2.7282352     -16.020153     -0.4083837     -0.15131094     6.1149814    
       433   313.22585     -8.3509611     -7.8435745      2.303498      -16.412293     -0.41656255    -0.15360807     6.141237     
       434   314.61282     -8.3510769     -8.1379743      1.8877197     -16.781738     -0.42416858    -0.15712554     6.1637883    
       435   315.95848     -8.3511883     -8.4168046      1.4814895     -17.128009     -0.43156371    -0.16176858     6.1829655    
       436   317.26078     -8.3512951     -8.6788415      1.0855939     -17.449965     -0.43986238    -0.16605912     6.1992883    
       437   318.51774     -8.351397      -8.924419       0.70056156    -17.747911     -0.44837772    -0.17008766     6.2118788    
       438   319.72739     -8.351494      -9.1536198      0.3270183     -18.021434     -0.45693442    -0.17414433     6.2210431    
       439   320.88773     -8.3515858     -9.365388      -0.034475629   -18.269583     -0.46558968    -0.17829065     6.2269573    
       440   321.99681     -8.3516723     -9.5601057     -0.38363122    -18.492561     -0.47490231    -0.18206262     6.229729     
       441   323.05274     -8.3517532     -9.7369841     -0.71978204    -18.689478     -0.48480012    -0.18566292     6.2291926    
       442   324.05372     -8.3518284     -9.8967313     -1.0424463     -18.860342     -0.49499615    -0.1893726      6.2253377    
       443   324.99798     -8.3518978     -10.037504     -1.3512747     -19.004081     -0.50555038    -0.19348022     6.2183393    
       444   325.88381     -8.351961      -10.15876      -1.6460562     -19.119765     -0.516572      -0.1977799      6.2081809    
       445   326.70958     -8.3520181     -10.258519     -1.9261205     -19.205613     -0.52720537    -0.20264621     6.1946815    
       446   327.4738      -8.3520687     -10.338717     -2.1916069     -19.263557     -0.53782767    -0.20722595     6.1779556    
       447   328.17506     -8.3521128     -10.40004      -2.4425654     -19.293811     -0.5484697     -0.21181545     6.1579109    
       448   328.8121      -8.3521502     -10.441471     -2.6787093     -19.295683     -0.55968888    -0.21688415     6.1351814    
       449   329.38375     -8.3521808     -10.462496     -2.8998312     -19.268836     -0.57118387    -0.22044379     6.1091541    
       450   329.88893     -8.3522043     -10.463611     -3.1058885     -19.213827     -0.58352791    -0.22347729     6.080032     
       451   330.32672     -8.3522207     -10.445474     -3.2969555     -19.1309       -0.59631044    -0.22590142     6.0478464    
       452   330.69635     -8.3522299     -10.408249     -3.4730448     -19.019986     -0.60935676    -0.22713577     6.0124675    
       453   330.99716     -8.3522318     -10.350358     -3.6337186     -18.880188     -0.6230895     -0.2283109      5.9742221    
       454   331.22858     -8.3522262     -10.273803     -3.779492      -18.712988     -0.63743079    -0.22921679     5.9330551    
       455   331.39017     -8.352213      -10.176805     -3.9100066     -18.517592     -0.65330959    -0.22779499     5.887771     
       456   331.48165     -8.3521922     -10.060957     -4.0256437     -18.295293     -0.66971133    -0.22588905     5.8388673    
       457   331.50277     -8.3521637     -9.9274001     -4.1267838     -18.04725      -0.68576641    -0.22415349     5.7868439    
       458   331.45335     -8.3521274     -9.776012      -4.2135582     -17.773133     -0.70130539    -0.22343465     5.7316562    
       459   331.33328     -8.3520832     -9.6080828     -4.2863563     -17.474231     -0.71688243    -0.22275889     5.6734432    
       460   331.14261     -8.352031      -9.4232777     -4.3453561     -17.150738     -0.73220116    -0.22238014     5.612662     
       461   330.88145     -8.3519708     -9.2215779     -4.3908842     -16.802638     -0.74722612    -0.22029042     5.5497518    
       462   330.54999     -8.3519025     -9.0035146     -4.4232615     -16.431009     -0.7623806     -0.2170248      5.4840343    
       463   330.14855     -8.3518261     -8.7690841     -4.4427633     -16.036312     -0.77731701    -0.21472969     5.4155359    
       464   329.67759     -8.3517416     -8.5200752     -4.4499384     -15.620331     -0.79251701    -0.21226652     5.3446579    
       465   329.13776     -8.3516488     -8.2565244     -4.4451482     -15.183191     -0.80775036    -0.20936197     5.2706544    
       466   328.52984     -8.3515479     -7.9775565     -4.4285535     -14.724806     -0.8230349     -0.20590262     5.1932795    
       467   327.85466     -8.3514389     -7.6854232     -4.4010522     -14.24761      -0.83823692    -0.20223488     5.113428     
       468   327.11315     -8.3513217     -7.3810116     -4.3631058     -13.752479     -0.85284294    -0.19902823     5.0311701    
       469   326.30639     -8.3511964     -7.064052      -4.3151311     -13.239863     -0.86701469    -0.19646604     4.9464697    
       470   325.43555     -8.3510631     -6.7367143     -4.2580152     -12.711591     -0.88113944    -0.19351858     4.8595832    
       471   324.50186     -8.3509219     -6.3999082     -4.1922655     -12.168721     -0.89544395    -0.19113171     4.7708226    
       472   323.50668     -8.3507727     -6.0541997     -4.1184187     -11.612149     -0.9102228     -0.18927987     4.6801289    
       473   322.45153     -8.3506158     -5.7003284     -4.0372529     -11.04263      -0.92456243    -0.18825333     4.5870241    
       474   321.33803     -8.3504512     -5.3388738     -3.9493644     -10.461062     -0.93866353    -0.18812626     4.4921298    
       475   320.16788     -8.3502791     -4.9716854     -3.8555793     -9.8694067     -0.9526491     -0.18834984     4.3955315    
       476   318.94279     -8.3500996     -4.5991816     -3.7564786     -9.2681442     -0.96635562    -0.18820332     4.297326     
       477   317.6646      -8.3499129     -4.2198702     -3.6522564     -8.6567017     -0.97970728    -0.18855196     4.1972807    
       478   316.33528     -8.3497192     -3.8356375     -3.5438998     -8.0374391     -0.99312045    -0.18955833     4.0954984    
       479   314.95686     -8.3495187     -3.4477456     -3.4320919     -7.4117222     -1.0069815     -0.19098376     3.9920897    
       480   313.53155     -8.3493115     -3.0558374     -3.3171138     -6.7805421     -1.0202106     -0.19185262     3.8874181    
       481   312.06164     -8.3490979     -2.6619965     -3.1999062     -6.1454104     -1.0329837     -0.19193437     3.7815489    
       482   310.54929     -8.3488782     -2.2647965     -3.0802637     -5.5054974     -1.0458528     -0.19145393     3.6757697    
       483   308.99667     -8.3486526     -1.8662517     -2.9595313     -4.8636282     -1.0587914     -0.1907452      3.5691081    
       484   307.40616     -8.3484213     -1.4679792     -2.8387836     -4.2210842     -1.0721023     -0.1900975      3.4615621    
       485   305.78022     -8.3481847     -1.0713712     -2.7187505     -3.5792865     -1.0856727     -0.18993339     3.3533928    
       486   304.1213      -8.347943      -0.67678208    -2.6000866     -2.938957      -1.0987155     -0.18841744     3.2445798    
       487   302.4319      -8.3476966     -0.28608728    -2.4836492     -2.3022531     -1.1110873     -0.1864848      3.1350521    
       488   300.71465     -8.3474457      0.10025719    -2.3700591     -1.6699758     -1.12308       -0.18372653     3.0252884    
       489   298.97223     -8.3471907      0.48212012    -2.2598867     -1.0428265     -1.1344265     -0.18050492     2.9153087    
       490   297.20727     -8.346932       0.85780865    -2.1540528     -0.4223415     -1.1448236     -0.17645069     2.8049798    
       491   295.4225      -8.3466698      1.2262889     -2.0531597      0.189914      -1.1548371     -0.17223198     2.6939997    
       492   293.6207      -8.3464047      1.5876631     -1.9572225      0.79362832    -1.1653514     -0.16714965     2.5821777    
       493   291.80465     -8.3461368      1.9415958     -1.8670851      1.3875715     -1.1760488     -0.16259257     2.469664     
       494   289.97718     -8.3458667      2.2875464     -1.7834588      1.9712348     -1.1866114     -0.15777048     2.3567371    
       495   288.14108     -8.3455947      2.6235629     -1.7070776      2.5425908     -1.1965853     -0.15355009     2.243337     
       496   286.29923     -8.3453212      2.9487051     -1.6385819      3.1006762     -1.2060577     -0.15027556     2.1294699    
       497   284.45448     -8.3450466      3.2627383     -1.5784482      3.6450629     -1.2153989     -0.14682876     2.0156087    
       498   282.60963     -8.3447712      3.5671053     -1.5264488      4.1761076     -1.2232677     -0.14309628     1.9018683    
       499   280.76749     -8.3444956      3.8608987     -1.4833208      4.6923965     -1.2306394     -0.13958865     1.7881588    
       500   278.93088     -8.34422        4.1414999     -1.4499628      5.1921309     -1.2378029     -0.13706136     1.6744673    
Loop time of 44.5949 on 1 procs for 500 steps with 640 atoms

Performance: 0.969 ns/day, 24.775 hours/ns, 11.212 timesteps/s, 7.176 katom-step/s
36.4% CPU use with 1 MPI tasks x 1 OpenMP threads

MPI task timing breakdown:
Section |  min time  |  avg time  |  max time  |%varavg| %total
---------------------------------------------------------------
Pair    | 37.986     | 37.986     | 37.986     |   0.0 | 85.18
Neigh   | 0.0018942  | 0.0018942  | 0.0018942  |   0.0 |  0.00
Comm    | 0.047289   | 0.047289   | 0.047289   |   0.0 |  0.11
Output  | 6.5193     | 6.5193     | 6.5193     |   0.0 | 14.62
Modify  | 0.034142   | 0.034142   | 0.034142   |   0.0 |  0.08
Other   |            | 0.006688   |            |       |  0.01

Nlocal:            640 ave         640 max         640 min
Histogram: 1 0 0 0 0 0 0 0 0 0
Nghost:           2160 ave        2160 max        2160 min
Histogram: 1 0 0 0 0 0 0 0 0 0
Neighs:              0 ave           0 max           0 min
Histogram: 1 0 0 0 0 0 0 0 0 0
FullNghs:        46066 ave       46066 max       46066 min
Histogram: 1 0 0 0 0 0 0 0 0 0

Total # of neighbors = 46066
Ave neighs/atom = 71.978125
Neighbor list builds = 1
Dangerous builds = 0

Total wall time: 0:00:44
