ITEM: TIMESTEP
0
ITEM: NUMBER OF ATOMS
324
ITEM: BOX BOUNDS pp pp pp
0.0000000000000000e+00 1.5226703999999998e+01
0.0000000000000000e+00 1.5226703999999998e+01
0.0000000000000000e+00 1.5226703999999998e+01
ITEM: ATOMS id type x y z fx fy fz vx vy vz
1 1 0 0 0 5.32907e-15 1.39888e-14 1.66533e-14 -1.24906 -0.312994 -2.04367
2 1 5.63501e-16 2.53778 2.53778 1.42109e-14 -8.65974e-15 -3.9968e-15 1.3932 3.38051 -1.0874
3 1 2.53778 1.55394e-16 2.53778 -8.88178e-15 1.20459e-14 -9.00668e-15 -0.0900412 -4.16543 -0.746178
4 1 2.53778 2.53778 0 1.55431e-15 4.41314e-15 1.82007e-14 -1.02309 -1.3672 0.395273
5 2 1.26889 1.26889 3.80668 -3.77476e-15 -2.16493e-15 2.19963e-15 -8.70666 2.13571 -5.59489
6 2 1.26889 3.80668 3.80668 3.55271e-15 7.2789e-15 3.7199e-15 -12.1724 2.6168 7.63843
7 2 1.26889 3.80668 1.26889 -8.88178e-16 6.02296e-15 -4.02456e-15 -6.36748 5.1648 9.22255
8 2 1.26889 1.26889 1.26889 -6.66134e-16 -4.66294e-15 9.29812e-16 -4.42984 4.81109 8.26434
9 2 3.80668 1.26889 1.26889 7.41074e-15 -2.05391e-15 6.73073e-16 8.17161 6.83414 5.95088
10 2 3.80668 3.80668 1.26889 4.05231e-15 2.23172e-15 -2.58653e-15 -4.93989 2.48202 9.26998
11 2 3.80668 3.80668 3.80668 6.96665e-15 1.77029e-15 5.48427e-15 -8.99463 0.104832 3.37363
12 2 3.80668 1.26889 3.80668 7.71605e-15 -3.83721e-15 5.51837e-15 -0.435787 10.1298 -5.51615
13 1 5.07557 0 0 -4.71845e-15 1.33643e-14 2.04819e-14 3.95658 -2.88482 2.83219
14 1 5.07557 2.53778 2.53778 -5.71765e-15 -2.93689e-15 -6.78808e-15 1.58846 -0.790418 2.34535
15 1 7.61335 1.55394e-16 2.53778 1.32935e-14 1.46549e-14 -1.28786e-14 -3.3089 1.78389 -2.14145
16 1 7.61335 2.53778 0 9.03599e-16 -3.9968e-15 1.60982e-14 -3.20192 3.59871 -0.377425
17 2 6.34446 1.26889 3.80668 -8.5305e-16 -1.11022e-15 3.00454e-15 -10.2885 10.2797 -2.12885
18 2 6.34446 3.80668 3.80668 -2.75387e-15 4.63518e-15 7.09242e-15 -7.22147 0.101825 8.11507
19 2 6.34446 3.80668 1.26889 2.29374e-15 7.32747e-15 2.60209e-15 -12.5035 -5.97735 12.5191
20 2 6.34446 1.26889 1.26889 4.66641e-16 -3.33067e-15 1.4988e-15 -1.2526 -5.90858 7.1513
21 2 8.88224 1.26889 1.26889 -7.81666e-15 -4.6612e-15 -2.73653e-16 -10.4429 -12.8813 4.33952
22 2 8.88224 3.80668 1.26889 -2.00187e-15 9.94192e-15 -1.8336e-15 5.38305 -1.73813 -8.57563
23 2 8.88224 3.80668 3.80668 5.06539e-16 3.43313e-15 4.59658e-15 11.4364 2.58523 2.29735
24 2 8.88224 1.26889 3.80668 -2.1233e-15 6.78277e-16 2.41886e-15 -9.53937 -4.72181 -6.6991
25 1 10.1511 0 0 7.69523e-15 1.91114e-14 2.27544e-14 2.49361 -0.719562 1.3817
26 1 10.1511 2.53778 2.53778 7.4038e-15 -6.67782e-15 -9.75272e-15 -1.61542 0.307994 -2.10551
27 1 12.6889 1.55394e-16 2.53778 -1.34337e-14 6.96665e-15 -1.14492e-14 -3.48735 -1.34516 -1.4947
28 1 12.6889 2.53778 0 -1.15463e-14 -3.96905e-15 1.26565e-14 -0.756108 -0.284291 0.301537
29 2 11.42 1.26889 3.80668 -8.18789e-15 -1.38431e-15 6.91884e-15 9.46328 -13.2888 12.7315
30 2 11.42 3.80668 3.80668 -2.44249e-15 3.74006e-15 5.12112e-15 3.61669 2.06773 12.9714
31 2 11.42 3.80668 1.26889 -5.55112e-15 8.10463e-15 -7.71952e-16 -1.09798 -6.00613 -1.28944
32 2 11.42 1.26889 1.26889 1.08802e-14 -2.0331e-15 -2.7079e-15 1.77552 -7.40811 -10.6032
33 2 13.9578 1.26889 1.26889 -1.9984e-15 -3.33067e-15 -1.46411e-15 -7.56779 12.6337 1.15218
34 2 13.9578 3.80668 1.26889 3.71925e-15 8.05606e-15 -1.84575e-15 12.3869 -1.4085 2.45285
35 2 13.9578 3.80668 3.80668 -1.9762e-14 1.57513e-15 6.72552e-15 5.27996 7.32997 -9.59345
36 2 13.9578 1.26889 3.80668 3.66374e-15 2.22045e-16 4.45997e-15 -10.3443 13.3913 -9.26432
37 1 0 5.07557 0 1.46549e-14 -1.70697e-15 2.22929e-14 -1.91434 0.315601 1.58415
38 1 5.63501e-16 7.61335 2.53778 1.46549e-14 2.31684e-14 -7.32747e-15 -0.817644 0.0855268 -0.0180554
39 1 2.53778 5.07557 2.53778 -7.54952e-15 -7.45497e-15 -3.94715e-15 3.47138 3.31521 2.21879
40 1 2.53778 7.61335 0 -4.44089e-16 1.44986e-14 1.78746e-14 -3.2737 -2.57665 1.02545
41 2 1.26889 6.34446 3.80668 -7.10543e-15 -2.49041e-15 6.16174e-15 9.40962 -2.9911 -1.52642
42 2 1.26889 8.88224 3.80668 2.66454e-15 -2.06744e-14 6.45512e-15 -0.248271 10.1408 13.2094
43 2 1.26889 8.88224 1.26889 -3.10862e-15 -1.85026e-14 3.11361e-15 -10.2504 -12.6805 7.13003
44 2 1.26889 6.34446 1.26889 -3.77476e-15 5.13044e-16 -2.38698e-15 -8.51463 -4.85771 3.74774
45 2 3.80668 6.34446 1.26889 1.00475e-14 8.45895e-16 -5.41234e-15 11.733 11.2316 -8.88362
46 2 3.80668 8.88224 1.26889 7.24421e-15 -1.64287e-14 -1.13971e-15 4.65813 6.05576 -0.0426187
47 2 3.80668 8.88224 3.80668 9.29812e-15 -1.94415e-14 1.05583e-14 1.89454 2.49909 -7.95784
48 2 3.80668 6.34446 3.80668 5.2458e-15 -4.8827e-16 7.57467e-15 -0.0778273 -0.321128 4.39415
49 1 5.07557 5.07557 0 -1.43219e-14 -6.40221e-15 1.60913e-14 3.78338 -0.290085 2.25081
50 1 5.07557 7.61335 2.53778 -1.02141e-14 2.58229e-14 -4.23966e-15 -3.07205 1.40727 -0.338889
51 1 7.61335 5.07557 2.53778 8.62309e-15 -1.44329e-15 -5.14692e-15 -0.609002 -2.61629 -3.1744
52 1 7.61335 7.61335 0 8.33841e-15 2.43243e-14 1.82077e-14 0.580409 -0.594247 -3.03253
53 2 6.34446 6.34446 3.80668 1.44416e-16 -1.31167e-15 3.13638e-15 3.05125 8.66312 3.91715
54 2 6.34446 8.88224 3.80668 -3.98531e-15 -1.96267e-14 6.00041e-15 11.4374 -8.96661 3.50704
55 2 6.34446 8.88224 1.26889 1.59161e-16 -1.42213e-14 -1.334e-15 2.48842 3.96193 1.39139
56 2 6.34446 6.34446 1.26889 1.90429e-15 -2.42688e-15 -8.88178e-16 -3.44618 5.33947 -13.0879
57 2 8.88224 6.34446 1.26889 -9.99201e-15 -2.58842e-15 -3.11817e-15 5.03012 10.2739 12.2029
58 2 8.88224 8.88224 1.26889 -4.28824e-15 -1.78529e-14 -4.45737e-15 -6.65941 -8.0368 11.2352
59 2 8.88224 8.88224 3.80668 -1.33574e-15 -1.71774e-14 1.02841e-14 12.2704 3.6732 -13.4304
60 2 8.88224 6.34446 3.80668 -1.80758e-15 -2.79204e-15 1.14297e-15 -1.41551 -7.12568 8.84215
61 1 10.1511 5.07557 0 6.4046e-15 6.82505e-16 2.32904e-14 -3.1393 -3.35003 -2.60233
62 1 10.1511 7.61335 2.53778 1.27467e-14 2.13869e-14 -1.09418e-14 -2.187 2.98756 -0.617268
63 1 12.6889 5.07557 2.53778 -1.36002e-14 -4.89539e-15 -4.38072e-15 -2.9394 -3.93273 3.61153
64 1 12.6889 7.61335 0 -1.11022e-14 3.0281e-14 2.11775e-14 -2.20839 -0.549838 -1.55608
65 2 11.42 6.34446 3.80668 -8.13238e-15 -5.18162e-15 7.9858e-15 6.26555 12.5651 9.16345
66 2 11.42 8.88224 3.80668 -4.32987e-15 -1.80949e-14 3.33067e-15 -2.51026 5.17244 -0.615197
67 2 11.42 8.88224 1.26889 -8.65974e-15 -1.74201e-14 2.13458e-15 -0.867172 2.91392 -2.45283
68 2 11.42 6.34446 1.26889 6.52256e-15 -5.36572e-15 -6.62664e-16 -6.19348 -0.787957 9.65888
69 2 13.9578 6.34446 1.26889 -2.10942e-15 -4.27067e-15 -2.10942e-15 2.9776 -12.7413 8.17447
70 2 13.9578 8.88224 1.26889 4.38538e-15 -1.36367e-14 -2.05044e-15 -9.48461 3.33756 12.8694
71 2 13.9578 8.88224 3.80668 -1.33227e-14 -1.95746e-14 2.91954e-15 -0.80428 9.40687 8.462
72 2 13.9578 6.34446 3.80668 1.94289e-15 -1.30495e-15 5.45397e-15 12.7435 -7.20174 2.3047
73 1 0 10.1511 0 1.06581e-14 -2.38698e-15 2.34916e-14 1.44955 -1.41295 1.24616
74 1 5.63501e-16 12.6889 2.53778 1.5099e-14 -3.71925e-14 -1.05818e-14 -3.53285 3.64337 -3.01608
75 1 2.53778 10.1511 2.53778 -5.77316e-15 3.64292e-17 -1.30928e-14 -3.56748 1.03524 -4.09807
76 1 2.53778 12.6889 0 -1.77636e-15 -3.28348e-14 2.2371e-14 3.69415 -1.98993 -3.90189
77 2 1.26889 11.42 3.80668 0 2.1684e-14 7.0922e-15 -6.38782 -4.89973 -11.2355
78 2 1.26889 13.9578 3.80668 5.55112e-15 9.4369e-16 6.96145e-15 9.11699 -0.307768 7.77149
79 2 1.26889 13.9578 1.26889 -6.66134e-16 -2.1233e-15 4.30211e-16 -9.18315 10.9955 3.59038
80 2 1.26889 11.42 1.26889 -2.22045e-16 2.01922e-14 -4.14078e-15 -6.74952 -2.03917 -9.10055
81 2 3.80668 11.42 1.26889 1.29341e-14 1.8915e-14 -2.60057e-15 7.93781 2.89807 7.59367
82 2 3.80668 13.9578 1.26889 3.94129e-15 2.98372e-16 -3.22832e-15 -12.1501 -9.68997 9.93154
83 2 3.80668 13.9578 3.80668 1.24067e-14 -1.35655e-15 7.49574e-15 -3.48839 -12.9682 9.78189
84 2 3.80668 11.42 3.80668 7.93809e-15 2.09615e-14 6.08563e-15 -3.07506 -5.11952 -0.770372
85 1 5.07557 10.1511 0 -6.71685e-15 -2.38091e-16 1.87541e-14 -2.66487 -0.0600959 2.42579
86 1 5.07557 12.6889 2.53778 -1.40998e-14 -3.03984e-14 -2.80017e-15 -0.508617 -3.90869 2.07286
87 1 7.61335 10.1511 2.53778 6.70026e-15 2.84495e-15 -1.79249e-14 2.32428 0.562833 1.87567
88 1 7.61335 12.6889 0 9.3129e-15 -3.0087e-14 2.08722e-14 -1.1605 -1.69828 -1.91679
89 2 6.34446 11.42 3.80668 4.96153e-15 2.34257e-14 5.77229e-15 -6.67778 -12.7879 -1.4046
90 2 6.34446 13.9578 3.80668 -3.15893e-15 -5.4956e-15 9.64506e-15 1.3328 -11.5847 12.7833
91 2 6.34446 13.9578 1.26889 8.45027e-16 -4.44089e-15 -2.16493e-15 -11.2559 6.80644 10.3848
92 2 6.34446 11.42 1.26889 2.64285e-15 2.07612e-14 -4.3715e-15 11.277 3.94428 8.85521
93 2 8.88224 11.42 1.26889 -1.06165e-14 2.0507e-14 -5.66626e-15 14.2511 6.95473 -13.0898
94 2 8.88224 13.9578 1.26889 -5.08621e-15 -3.71665e-15 -5.44183e-15 1.03178 -11.7353 -2.86894
95 2 8.88224 13.9578 3.80668 8.25728e-16 -6.73073e-16 6.63532e-15 -5.49123 -2.69499 -0.870055
96 2 8.88224 11.42 3.80668 -5.38111e-15 2.29573e-14 1.16994e-14 0.762936 3.63349 10.4208
97 1 10.1511 10.1511 0 5.84255e-15 -2.5379e-15 3.03108e-14 2.95331 3.35599 0.603442
98 1 10.1511 12.6889 2.53778 9.24261e-15 -2.99309e-14 -1.00336e-14 3.69098 2.65162 -1.97752
99 1 12.6889 10.1511 2.53778 -7.60503e-15 -4.47559e-15 -1.28344e-14 4.08368 -2.06847 0.352538
100 1 12.6889 12.6889 0 -1.26565e-14 -2.74503e-14 2.75691e-14 -0.36673 -2.92101 -1.15773
101 2 11.42 11.42 3.80668 -8.88178e-15 2.02251e-14 2.86885e-15 3.19439 9.40098 -7.53053
102 2 11.42 13.9578 3.80668 1.85962e-15 -9.15934e-16 7.35349e-15 -6.07082 -12.7168 5.26082
103 2 11.42 13.9578 1.26889 -3.747e-15 -1.44329e-15 -2.63504e-15 8.2716 0.916785 -6.91858
104 2 11.42 11.42 1.26889 1.1352e-14 2.06623e-14 -4.59127e-15 -5.08091 9.82806 10.3281
105 2 13.9578 11.42 1.26889 -2.38698e-15 1.80758e-14 -1.69482e-15 -1.4253 -5.871 3.01643
106 2 13.9578 13.9578 1.26889 3.38618e-15 -4.996e-16 -2.55351e-15 -4.99722 6.53295 2.90122
107 2 13.9578 13.9578 3.80668 -2.13718e-14 1.9984e-15 7.88258e-15 -6.07345 -1.58705 -12.758
108 2 13.9578 11.42 3.80668 2.66454e-15 1.84644e-14 7.32747e-15 -7.75969 -5.82387 -6.63548
109 1 0 0 5.07557 1.42109e-14 1.75415e-14 -9.78384e-16 -0.160087 2.14892 -0.269651
110 1 5.63501e-16 2.53778 7.61335 1.5099e-14 9.99201e-16 2.56488e-14 4.34005 2.91323 -0.0843159
111 1 2.53778 1.55394e-16 7.61335 2.22045e-15 2.19269e-14 1.73112e-14 -1.0815 1.78731 -2.60319
112 1 2.53778 2.53778 5.07557 4.21885e-15 -1.249e-15 -1.39038e-15 -0.0996684 -0.43457 -1.00933
113 2 1.26889 1.26889 8.88224 -1.77636e-15 -9.4369e-16 -2.23502e-14 13.085 9.8009 -3.9188
114 2 1.26889 3.80668 8.88224 6.66134e-16 -3.80945e-15 -1.8688e-14 -12.7107 -4.53826 9.53831
115 2 1.26889 3.80668 6.34446 -7.10543e-15 8.29892e-15 5.72459e-17 -5.38971 -10.5036 -8.04463
116 2 1.26889 1.26889 6.34446 -2.88658e-15 -5.32907e-15 3.76695e-15 6.50239 12.1546 -6.49599
117 2 3.80668 1.26889 6.34446 6.27276e-15 -7.42462e-15 2.03288e-15 -7.3991 0.318019 -7.48536
118 2 3.80668 3.80668 6.34446 8.16014e-15 5.00641e-15 1.9276e-15 6.70656 -12.0951 3.56934
119 2 3.80668 3.80668 8.88224 9.27036e-15 3.96731e-15 -2.10306e-14 -0.960266 -13.5931 11.7874
120 2 3.80668 1.26889 8.88224 5.60663e-15 -1.17267e-15 -1.88393e-14 3.55045 -5.38168 -11.3285
121 1 5.07557 0 5.07557 -1.15463e-14 1.42698e-14 -6.58631e-15 -1.03772 0.897729 2.27361
122 1 5.07557 2.53778 7.61335 -7.96585e-15 -8.96852e-16 2.06413e-14 -0.577142 3.1389 2.06251
123 1 7.61335 1.55394e-16 7.61335 6.0334e-15 1.28786e-14 2.0684e-14 2.1316 -1.53471 -0.840261
124 1 7.61335 2.53778 5.07557 6.59878e-15 -3.9968e-15 2.71831e-15 -1.40487 -3.466 1.60195
125 2 6.34446 1.26889 8.88224 2.46222e-15 4.44089e-16 -1.7375e-14 -0.196786 -9.19303 13.0368
126 2 6.34446 3.80668 8.88224 -1.85659e-15 -1.66533e-16 -2.07987e-14 -8.03061 2.26351 -14.0943
127 2 6.34446 3.80668 6.34446 1.90538e-15 5.68989e-15 4.96142e-15 9.38555 7.26005 3.96733
128 2 6.34446 1.26889 6.34446 -1.65449e-15 -2.66454e-15 4.05578e-15 -2.15974 7.86573 10.1689
129 2 8.88224 1.26889 6.34446 -4.7809e-15 -8.89046e-16 4.52763e-16 4.88953 -2.82305 3.02926
130 2 8.88224 3.80668 6.34446 -3.35149e-15 5.20937e-15 3.55532e-15 -10.4256 1.07042 4.127
131 2 8.88224 3.80668 8.88224 7.77156e-16 5.17338e-15 -1.89002e-14 -0.214293 0.662024 -3.66684
132 2 8.88224 1.26889 8.88224 -2.34535e-15 -3.35322e-15 -1.51923e-14 -7.79704 2.2964 -14.1253
133 1 10.1511 0 5.07557 8.91648e-15 1.11387e-14 6.09473e-15 4.37369 -2.92096 -0.377882
134 1 10.1511 2.53778 7.61335 9.87405e-15 -9.12638e-15 1.08098e-14 -2.09309 0.538774 3.08119
135 1 12.6889 1.55394e-16 7.61335 -1.27676e-14 1.31006e-14 2.27203e-14 -1.54522 -3.45796 -4.00462
136 1 12.6889 2.53778 5.07557 -8.21565e-15 -6.10623e-16 -3.65918e-16 1.65257 0.622049 -4.35986
137 2 11.42 1.26889 8.88224 -9.15934e-15 4.91621e-15 -1.80291e-14 -5.59205 -10.8035 10.1014
138 2 11.42 3.80668 8.88224 -2.77556e-15 -3.04791e-15 -1.69849e-14 4.4808 11.3969 4.69249
139 2 11.42 3.80668 6.34446 -7.21645e-15 7.10196e-15 -1.95265e-15 -5.89749 -2.35602 1.27069
140 2 11.42 1.26889 6.34446 6.91114e-15 -4.71845e-16 -2.37039e-15 13.6569 1.55474 -11.191
141 2 13.9578 1.26889 6.34446 -2.88658e-15 -1.9984e-15 -1.32533e-15 11.3101 8.68881 -6.54715
142 2 13.9578 3.80668 6.34446 6.66134e-16 4.32987e-15 3.24393e-16 -10.2819 11.9535 -12.6594
143 2 13.9578 3.80668 8.88224 -1.54876e-14 -2.17187e-15 -2.396e-14 -8.50119 -0.194099 10.6866
144 2 13.9578 1.26889 8.88224 3.66374e-15 -9.4369e-16 -1.77289e-14 -2.11762 -2.90358 4.28595
145 1 0 5.07557 5.07557 2.08722e-14 -5.82867e-15 -3.37209e-15 -2.66705 -3.64721 1.76934
146 1 5.63501e-16 7.61335 7.61335 8.88178e-15 2.22428e-14 2.2757e-14 -0.436265 3.69286 1.04481
147 1 2.53778 5.07557 7.61335 -3.55271e-15 -3.5822e-15 1.8861e-14 -2.56994 -2.05844 3.38784
148 1 2.53778 7.61335 5.07557 5.10703e-15 2.16008e-14 2.51535e-17 4.17207 2.02569 -2.23407
149 2 1.26889 6.34446 8.88224 6.66134e-16 -2.31586e-15 -1.62873e-14 13.424 11.8538 -2.20296
150 2 1.26889 8.88224 8.88224 3.77476e-15 -1.4589e-14 -2.06046e-14 -8.59026 -4.36424 3.92438
151 2 1.26889 8.88224 6.34446 -5.77316e-15 -1.73039e-14 -3.16869e-15 -5.28025 4.58743 8.85197
152 2 1.26889 6.34446 6.34446 -4.44089e-16 -5.81913e-15 -2.12243e-15 -12.5662 -8.54029 8.58145
153 2 3.80668 6.34446 6.34446 4.35763e-15 -3.57131e-15 -2.82315e-15 2.34334 -1.67888 -8.05032
154 2 3.80668 8.88224 6.34446 5.13478e-15 -1.473e-14 -1.91535e-15 -6.14778 -6.77724 4.32779
155 2 3.80668 8.88224 8.88224 6.07847e-15 -1.50049e-14 -2.14111e-14 1.83908 10.2837 11.2568
156 2 3.80668 6.34446 8.88224 5.66214e-15 -4.36272e-15 -1.66787e-14 -12.6414 -1.22145 -5.31158
157 1 5.07557 5.07557 5.07557 -9.82547e-15 -3.35452e-15 -3.48311e-15 -1.29963 2.22279 -0.154432
158 1 5.07557 7.61335 7.61335 -1.18516e-14 2.74934e-14 2.36386e-14 4.04898 2.39117 -0.905568
159 1 7.61335 5.07557 7.61335 8.63263e-15 -4.63518e-15 1.62461e-14 1.78206 0.293994 2.61634
160 1 7.61335 7.61335 5.07557 6.67012e-15 2.8505e-14 3.38618e-15 -0.991808 2.87747 3.08719
161 2 6.34446 6.34446 8.88224 4.58748e-15 -1.88413e-15 -1.71113e-14 -1.29567 -11.1163 5.39233
162 2 6.34446 8.88224 8.88224 -2.80071e-15 -1.41172e-14 -2.22461e-14 6.91338 8.42659 9.52727
163 2 6.34446 8.88224 6.34446 2.46591e-15 -1.60913e-14 -5.00359e-15 2.66182 -12.175 -11.544
164 2 6.34446 6.34446 6.34446 3.50501e-15 -7.99057e-15 5.30609e-16 -5.50769 -2.86079 4.68484
165 2 8.88224 6.34446 6.34446 -1.20251e-14 -6.38292e-15 3.55185e-16 3.71502 -4.00667 -13.0085
166 2 8.88224 8.88224 6.34446 -6.80359e-15 -1.46987e-14 -8.86357e-15 11.8014 -0.962996 -1.81376
167 2 8.88224 8.88224 8.88224 -4.29518e-15 -1.70126e-14 -2.28721e-14 8.33624 9.1155 4.59687
168 2 8.88224 6.34446 8.88224 -5.2354e-15 -6.87341e-15 -1.13264e-14 -9.60945 6.20498 -7.94252
169 1 10.1511 5.07557 5.07557 9.58261e-15 -1.97585e-15 -6.31656e-16 2.99793 0.0770156 -2.35988
170 1 10.1511 7.61335 7.61335 9.95037e-15 2.53868e-14 1.91175e-14 0.397343 1.57227 0.135309
171 1 12.6889 5.07557 7.61335 -6.27276e-15 -6.13398e-15 1.68089e-14 -1.28155 -0.0549777 -2.59818
172 1 12.6889 7.61335 5.07557 -1.09912e-14 2.11147e-14 -3.58914e-15 1.23903 2.88482 2.62523
173 2 11.42 6.34446 8.88224 -1.42109e-14 -5.73781e-15 -2.05305e-14 -3.11544 7.46546 0.770123
174 2 11.42 8.88224 8.88224 -2.16493e-15 -1.69188e-14 -1.85715e-14 4.86079 11.7905 12.1576
175 2 11.42 8.88224 6.34446 -1.0103e-14 -1.88738e-14 -3.62926e-15 5.30083 -1.36936 -3.10551
176 2 11.42 6.34446 6.34446 1.12965e-14 -6.04529e-15 -3.48701e-15 -0.589693 -5.56154 6.77427
177 2 13.9578 6.34446 6.34446 -5.32907e-15 -2.02084e-15 1.33534e-15 11.1682 0.815279 1.07308
178 2 13.9578 8.88224 6.34446 9.27036e-15 -1.63272e-14 -5.95357e-15 9.86113 10.7816 2.30496
179 2 13.9578 8.88224 8.88224 -1.67089e-14 -1.71772e-14 -2.06224e-14 7.78072 -10.9632 8.57725
180 2 13.9578 6.34446 8.88224 6.32827e-15 -8.97828e-15 -1.82267e-14 -13.0837 2.1091 -10.4927
181 1 0 10.1511 5.07557 5.32907e-15 -3.90313e-16 2.22392e-15 -0.435086 -1.31269 -2.15077
182 1 5.63501e-16 12.6889 7.61335 9.32587e-15 -3.38063e-14 2.89857e-14 -2.6822 -1.74165 -2.55537
183 1 2.53778 10.1511 7.61335 1.77636e-15 -3.90139e-15 1.70208e-14 0.72181 0.507842 -3.63169
184 1 2.53778 12.6889 5.07557 -4.44089e-15 -3.4972e-14 -2.39826e-15 3.98553 3.66972 1.26511
185 2 1.26889 11.42 8.88224 -8.88178e-15 2.63053e-14 -1.97996e-14 -0.213572 12.7846 -5.58178
186 2 1.26889 13.9578 8.88224 1.33227e-15 2.22045e-16 -2.30441e-14 -13.0331 -5.76935 -2.63744
187 2 1.26889 13.9578 6.34446 -9.10383e-15 -4.7462e-15 -1.16747e-15 -12.5911 -13.3436 3.03646
188 2 1.26889 11.42 6.34446 2.66454e-15 2.38351e-14 -3.93294e-15 -0.07455 -0.530856 -9.55312
189 2 3.80668 11.42 6.34446 7.46625e-15 2.21641e-14 1.00722e-15 4.01092 -6.99363 -11.0246
190 2 3.80668 13.9578 6.34446 4.60743e-15 7.11237e-16 -6.97359e-16 -12.3442 -9.54524 9.57501
191 2 3.80668 13.9578 8.88224 5.07927e-15 -2.28637e-15 -1.98418e-14 3.30076 0.130076 12.969
192 2 3.80668 11.42 8.88224 8.07687e-15 1.74718e-14 -1.46176e-14 13.3733 -11.0427 -1.60172
193 1 5.07557 10.1511 5.07557 -1.21847e-14 -6.48678e-15 -3.39052e-15 2.16163 -1.72116 2.4348
194 1 5.07557 12.6889 7.61335 -1.07137e-14 -3.41923e-14 2.1184e-14 2.01127 3.92601 -3.48544
195 1 7.61335 10.1511 7.61335 9.47853e-15 -8.84015e-15 2.46626e-14 3.84923 -2.70922 -0.721172
196 1 7.61335 12.6889 5.07557 3.97837e-15 -3.9857e-14 -1.86483e-15 -2.85554 -1.5379 3.55669
197 2 6.34446 11.42 8.88224 -5.14996e-15 2.26208e-14 -1.56385e-14 9.06618 2.74516 8.56118
198 2 6.34446 13.9578 8.88224 -2.34448e-15 -1.11022e-16 -2.23311e-14 -6.71575 12.5884 -13.9124
199 2 6.34446 13.9578 6.34446 2.67343e-15 -3.66374e-15 -4.40186e-15 -1.66921 -13.6464 0.88799
200 2 6.34446 11.42 6.34446 4.6573e-15 2.49245e-14 -4.67855e-15 -4.60618 -0.803283 0.888095
201 2 8.88224 11.42 6.34446 -9.95731e-15 2.34084e-14 -1.07379e-14 -2.84542 11.7621 4.09805
202 2 8.88224 13.9578 6.34446 -2.88658e-15 -2.74954e-16 -6.68389e-15 10.8327 2.35652 1.05315
203 2 8.88224 13.9578 8.88224 -6.16521e-15 -8.41341e-17 -1.52916e-14 6.6607 -8.67214 4.20888
204 2 8.88224 11.42 8.88224 -6.19643e-15 2.23589e-14 -2.12946e-14 -6.31083 -10.3334 4.49738
205 1 10.1511 10.1511 5.07557 4.1564e-15 -1.66533e-15 8.6528e-15 1.78646 -0.276337 1.56594
206 1 10.1511 12.6889 7.61335 9.57567e-15 -3.0944e-14 2.2969e-14 -0.695135 -1.8184 -1.34881
207 1 12.6889 10.1511 7.61335 -6.71685e-15 -1.02696e-14 2.36269e-14 1.26287 -2.13185 2.79669
208 1 12.6889 12.6889 5.07557 -1.67644e-14 -2.44249e-14 -2.16072e-15 0.901446 -1.37105 1.90441
209 2 11.42 11.42 8.88224 -8.96505e-15 2.16285e-14 -1.84752e-14 4.61498 -0.326843 -8.71816
210 2 11.42 13.9578 8.88224 -4.05231e-15 -2.64372e-15 -2.17482e-14 -6.65006 10.8077 -0.727078
211 2 11.42 13.9578 6.34446 -5.88418e-15 -2.35922e-15 -7.87911e-15 -1.37206 4.38428 -5.08225
212 2 11.42 11.42 6.34446 7.54952e-15 2.19894e-14 -8.95367e-15 5.98747 10.8637 -0.378894
213 2 13.9578 11.42 6.34446 2.77556e-15 2.32869e-14 -5.02029e-15 -10.2496 1.70023 1.34185
214 2 13.9578 13.9578 6.34446 8.21565e-15 -3.38618e-15 -5.21805e-15 -6.76344 12.8261 1.18231
215 2 13.9578 13.9578 8.88224 -1.11022e-14 -2.60902e-15 -2.52021e-14 -6.47754 7.56757 2.7902
216 2 13.9578 11.42 8.88224 7.82707e-15 2.61388e-14 -2.30267e-14 7.83486 -13.3506 -4.21478
217 1 0 0 10.1511 1.15463e-14 1.84297e-14 1.56819e-15 -2.9362 0.212355 -3.82575
218 1 5.63501e-16 2.53778 12.6889 1.24345e-14 -3.88578e-15 -3.05519e-14 3.52882 0.281394 -2.23772
219 1 2.53778 1.55394e-16 12.6889 -2.22045e-15 1.68754e-14 -3.78725e-14 1.03256 0.576022 0.0670575
220 1 2.53778 2.53778 10.1511 -2.22045e-15 -5.82867e-16 -2.46071e-15 2.08255 1.69778 -0.988251
221 2 1.26889 1.26889 13.9578 -3.10862e-15 -1.05471e-15 -6.75848e-15 7.47382 0.549583 -13.5774
222 2 1.26889 3.80668 13.9578 2.22045e-15 -1.01308e-15 -3.4972e-15 -12.1523 8.66369 -14.0678
223 2 1.26889 3.80668 11.42 -3.33067e-15 1.42247e-15 2.20065e-14 12.2862 -8.35756 10.9641
224 2 1.26889 1.26889 11.42 4.44089e-16 -2.10942e-15 2.24265e-14 -10.6601 12.4963 -12.5676
225 2 3.80668 1.26889 11.42 9.85323e-15 -4.92661e-16 2.16628e-14 13.9909 2.71936 -10.2374
226 2 3.80668 3.80668 11.42 6.55032e-15 1.54998e-15 2.20911e-14 4.59492 -5.71621 5.89256
227 2 3.80668 3.80668 13.9578 1.15463e-14 1.13711e-15 -3.44863e-15 10.2087 -7.80062 -0.267104
228 2 3.80668 1.26889 13.9578 3.16414e-15 -3.35149e-15 -2.68709e-15 -11.2599 -4.16933 -9.96394
229 1 5.07557 0 10.1511 -8.74301e-15 9.822e-15 6.65353e-15 3.60861 0.546958 -0.0794063
230 1 5.07557 2.53778 12.6889 -1.09635e-14 3.51802e-15 -3.07359e-14 -1.33392 -2.86126 1.58153
231 1 7.61335 1.55394e-16 12.6889 1.41503e-14 1.64313e-14 -3.82749e-14 -3.48653 -4.12709 -2.04296
232 1 7.61335 2.53778 10.1511 -6.91721e-16 -1.33227e-15 -2.92127e-15 -3.3095 -0.134921 2.90602
233 2 6.34446 1.26889 13.9578 5.16514e-16 -4.44089e-16 -9.17322e-15 1.8059 5.65952 2.74622
234 2 6.34446 3.80668 13.9578 -1.69569e-15 3.33067e-16 -3.2821e-15 -12.5315 -5.95834 0.30085
235 2 6.34446 3.80668 11.42 4.34375e-15 1.80411e-15 2.59038e-14 -3.29021 0.42371 -0.440777
236 2 6.34446 1.26889 11.42 -7.18392e-16 -2.66454e-15 2.16771e-14 0.216612 -0.18984 -0.677058
237 2 8.88224 1.26889 11.42 -1.12237e-14 -5.79311e-15 2.16801e-14 9.97008 -10.3852 -8.25562
238 2 8.88224 3.80668 11.42 -3.5319e-15 1.04782e-14 2.15838e-14 -0.933423 -4.76332 -13.1869
239 2 8.88224 3.80668 13.9578 3.91354e-15 3.24046e-15 -7.29625e-15 -0.282847 9.56709 -7.98685
240 2 8.88224 1.26889 13.9578 -1.01308e-15 -2.44856e-15 -3.33175e-15 9.99645 -9.51599 3.54282
241 1 10.1511 0 10.1511 1.15116e-14 1.91097e-14 1.99135e-15 -0.917989 2.04182 -4.18279
242 1 10.1511 2.53778 12.6889 1.23582e-14 -3.2023e-15 -2.94171e-14 3.37415 -0.281844 0.053645
243 1 12.6889 1.55394e-16 12.6889 -1.41553e-14 2.0095e-14 -3.34871e-14 0.131498 2.98027 1.13712
244 1 12.6889 2.53778 10.1511 -6.16174e-15 -5.09315e-15 -2.06042e-15 1.26333 -2.56509 -3.38542
245 2 11.42 1.26889 13.9578 -5.71765e-15 4.57967e-16 -3.73486e-15 -12.9596 13.6294 10.9283
246 2 11.42 3.80668 13.9578 -5.55112e-16 1.31752e-15 -3.26627e-15 -4.42292 10.6581 0.522058
247 2 11.42 3.80668 11.42 -9.65894e-15 -3.51282e-16 2.25475e-14 10.0837 -8.83963 8.92259
248 2 11.42 1.26889 11.42 1.02141e-14 -5.53377e-15 2.28823e-14 13.319 -11.1266 -0.548333
249 2 13.9578 1.26889 11.42 -3.33067e-16 -7.21645e-16 2.02754e-14 -10.5422 3.89459 3.02621
250 2 13.9578 3.80668 11.42 3.83027e-15 7.29278e-15 1.90837e-14 -6.52085 -1.50464 -9.92832
251 2 13.9578 3.80668 13.9578 -1.83742e-14 -3.46945e-17 -6.3699e-15 1.23206 9.33938 7.72873
252 2 13.9578 1.26889 13.9578 2.77556e-15 -3.77476e-15 -1.96371e-15 -9.16013 10.828 7.51849
253 1 0 5.07557 10.1511 6.66134e-15 1.06859e-15 -3.16695e-16 -0.824894 2.37698 0.706791
254 1 5.63501e-16 7.61335 12.6889 1.06581e-14 3.03533e-14 -2.88936e-14 2.55236 1.84917 2.37881
255 1 2.53778 5.07557 12.6889 -4.44089e-15 -3.64292e-17 -3.38297e-14 4.52814 2.27313 1.69371
256 1 2.53778 7.61335 10.1511 -4.21885e-15 1.67967e-14 -1.12584e-15 3.0295 0.915309 -0.23346
257 2 1.26889 6.34446 13.9578 -6.21725e-15 2.61943e-15 -6.30052e-15 -0.959054 6.78712 -10.2748
258 2 1.26889 8.88224 13.9578 -3.10862e-15 -1.92416e-14 -3.53623e-15 10.2772 9.80047 -11.054
259 2 1.26889 8.88224 11.42 -7.77156e-15 -1.9356e-14 2.54313e-14 -8.65171 13.3672 -0.525982
260 2 1.26889 6.34446 11.42 -8.88178e-16 -2.48846e-15 2.08167e-14 5.72493 -5.97107 7.5099
261 2 3.80668 6.34446 11.42 1.20459e-14 -1.3687e-15 2.61211e-14 -10.1023 -10.981 12.7915
262 2 3.80668 8.88224 11.42 1.04916e-14 -1.40794e-14 2.03168e-14 -11.0348 -8.33823 4.2588
263 2 3.80668 8.88224 13.9578 8.90954e-15 -1.75294e-14 -4.60743e-15 3.41508 -13.6931 -8.95331
264 2 3.80668 6.34446 13.9578 9.99201e-15 6.26669e-17 -1.44329e-15 -5.50483 -10.0209 4.0099
265 1 5.07557 5.07557 10.1511 -1.42941e-14 -5.99846e-15 -7.76506e-15 -1.2146 -0.451669 1.28656
266 1 5.07557 7.61335 12.6889 -1.25455e-14 3.2183e-14 -3.04774e-14 -3.28676 1.43801 3.16986
267 1 7.61335 5.07557 12.6889 7.79259e-15 -6.10623e-16 -3.45739e-14 -1.0508 -3.63288 2.56293
268 1 7.61335 7.61335 10.1511 8.1081e-15 1.56698e-14 -1.65146e-15 3.56522 -0.404303 2.79864
269 2 6.34446 6.34446 13.9578 6.64551e-15 -4.74707e-15 -4.996e-15 0.419623 11.441 -1.29697
270 2 6.34446 8.88224 13.9578 -7.76462e-15 -2.07022e-14 -2.70443e-15 13.3939 4.3999 8.76028
271 2 6.34446 8.88224 11.42 -4.52589e-15 -1.64105e-14 2.15886e-14 -5.40447 -9.64886 9.71708
272 2 6.34446 6.34446 11.42 4.27392e-15 -1.89519e-15 2.29539e-14 13.5774 -7.76072 6.87847
273 2 8.88224 6.34446 11.42 -1.096e-14 -9.3185e-15 1.93014e-14 -6.82423 -13.6854 9.19999
274 2 8.88224 8.88224 11.42 -5.29785e-15 -1.83467e-14 2.98424e-14 3.51463 0.724221 -8.83842
275 2 8.88224 8.88224 13.9578 -1.02002e-15 -1.86639e-14 -1.92207e-15 -9.74376 -11.7787 -13.5148
276 2 8.88224 6.34446 13.9578 -5.98133e-15 -6.56701e-15 4.33681e-16 -9.20659 4.04085 0.742929
277 1 10.1511 5.07557 10.1511 5.4054e-15 8.91127e-15 3.3105e-15 -2.55224 -2.43856 -3.84238
278 1 10.1511 7.61335 12.6889 1.37945e-14 3.51173e-14 -3.57353e-14 -2.78386 2.95229 2.52164
279 1 12.6889 5.07557 12.6889 -1.40443e-14 -2.23866e-15 -2.84738e-14 -3.38445 -1.74873 2.51561
280 1 12.6889 7.61335 10.1511 -7.71605e-15 3.00883e-14 -4.83641e-15 2.72915 1.81337 -3.28917
281 2 11.42 6.34446 13.9578 -7.21645e-15 -8.31865e-15 -6.57807e-15 -1.04711 -7.92986 11.6251
282 2 11.42 8.88224 13.9578 -6.18949e-15 -1.91236e-14 -7.3832e-15 13.2462 10.2136 -6.58554
283 2 11.42 8.88224 11.42 -9.27036e-15 -1.9245e-14 2.42866e-14 8.03041 11.1329 -8.97577
284 2 11.42 6.34446 11.42 6.52256e-15 -1.13525e-14 2.41838e-14 4.14004 6.77758 -4.7377
285 2 13.9578 6.34446 11.42 2.72005e-15 -7.35393e-15 2.63956e-14 -8.61254 8.21925 8.17853
286 2 13.9578 8.88224 11.42 1.04361e-14 -2.15297e-14 2.80834e-14 3.42977 12.036 -8.03754
287 2 13.9578 8.88224 13.9578 -1.12688e-14 -2.39687e-14 -5.70377e-15 -12.5719 6.0918 -2.62095
288 2 13.9578 6.34446 13.9578 7.38298e-15 -5.93492e-15 -8.71525e-15 -11.8721 -9.4404 2.37365
289 1 0 10.1511 10.1511 1.11022e-14 -1.29237e-15 1.36436e-15 0.746456 0.883003 3.06746
290 1 5.63501e-16 12.6889 12.6889 8.88178e-15 -3.22242e-14 -3.76851e-14 -0.54592 -1.82541 -3.19383
291 1 2.53778 10.1511 12.6889 3.55271e-15 -4.72278e-15 -3.16832e-14 -3.23272 -0.818016 2.00795
292 1 2.53778 12.6889 10.1511 0 -2.45914e-14 8.72566e-16 3.96452 -1.88445 -2.31972
293 2 1.26889 11.42 13.9578 -3.77476e-15 2.22045e-14 1.1692e-15 -12.028 -3.46187 -7.13253
294 2 1.26889 13.9578 13.9578 -6.66134e-16 -3.21965e-15 -3.8719e-15 -6.92477 10.5624 -4.60426
295 2 1.26889 13.9578 11.42 -3.77476e-15 -3.08087e-15 2.18263e-14 -5.2 -1.24425 -1.46761
296 2 1.26889 11.42 11.42 -6.66134e-15 2.34812e-14 2.0937e-14 -7.10892 11.7569 1.11322
297 2 3.80668 11.42 11.42 1.45717e-14 1.87576e-14 2.02991e-14 -6.54892 -3.38053 5.27904
298 2 3.80668 13.9578 11.42 8.90954e-15 -3.13985e-15 1.91132e-14 10.49 -8.044 0.814919
299 2 3.80668 13.9578 13.9578 7.68829e-15 -6.45317e-15 -5.01335e-15 11.3258 -4.58885 -11.2431
300 2 3.80668 11.42 13.9578 1.03528e-14 2.04654e-14 -5.50449e-15 -7.18209 -1.61848 11.8888
301 1 5.07557 10.1511 10.1511 -1.12133e-14 1.70166e-15 5.59188e-15 -1.5532 3.00529 -0.457209
302 1 5.07557 12.6889 12.6889 -1.31284e-14 -2.68015e-14 -3.11396e-14 -2.77337 -2.67164 1.91812
303 1 7.61335 10.1511 12.6889 1.58311e-14 -7.9034e-15 -3.71786e-14 0.444964 -0.897183 -4.26732
304 1 7.61335 12.6889 10.1511 9.22352e-15 -2.2593e-14 -1.04777e-15 -2.02334 -2.54811 0.626115
305 2 6.34446 11.42 13.9578 8.58688e-17 2.15383e-14 1.19002e-15 12.107 -6.81871 -1.52087
306 2 6.34446 13.9578 13.9578 -6.16391e-15 -7.66054e-15 -2.88658e-15 10.1119 -3.98984 -6.64697
307 2 6.34446 13.9578 11.42 1.80715e-15 -1.05471e-15 1.93109e-14 -1.60199 10.2948 3.20501
308 2 6.34446 11.42 11.42 -5.04306e-15 2.07612e-14 2.19564e-14 13.0389 9.03427 -5.98103
309 2 8.88224 11.42 11.42 -1.20529e-14 2.29747e-14 2.86082e-14 -5.38473 -9.60408 -11.7066
310 2 8.88224 13.9578 11.42 -8.41688e-15 -1.47278e-15 2.11983e-14 -2.24934 -5.06385 -5.09021
311 2 8.88224 13.9578 13.9578 -4.06272e-15 -4.65513e-15 3.33067e-16 10.5328 -7.78877 5.33924
312 2 8.88224 11.42 13.9578 -6.21725e-15 2.34352e-14 -3.98314e-15 -0.662457 -12.1161 10.0516
313 1 10.1511 10.1511 10.1511 7.76462e-15 -4.87804e-15 1.17267e-15 -0.736659 3.80965 2.31567
314 1 10.1511 12.6889 12.6889 1.87281e-14 -3.3893e-14 -4.08406e-14 2.73566 3.63936 -4.17278
315 1 12.6889 10.1511 12.6889 -1.33782e-14 -3.17107e-15 -3.7555e-14 -2.11289 -1.20368 0.863804
316 1 12.6889 12.6889 10.1511 -1.36557e-14 -3.12458e-14 3.50067e-15 1.18519 0.0787082 1.25672
317 2 11.42 11.42 13.9578 -1.11855e-14 2.62811e-14 -7.44858e-15 -1.35253 0.836145 -7.61067
318 2 11.42 13.9578 13.9578 -2.19269e-15 -1.73472e-15 -3.13291e-15 1.71698 4.04807 11.628
319 2 11.42 13.9578 11.42 -1.34337e-14 -5.08621e-15 2.57849e-14 6.10534 1.43481 -8.80789
320 2 11.42 11.42 11.42 1.32672e-14 2.44214e-14 2.67152e-14 5.75406 13.5256 8.03284
321 2 13.9578 11.42 11.42 2.44249e-15 2.53061e-14 2.72386e-14 -12.3647 4.33985 -5.26993
322 2 13.9578 13.9578 11.42 7.38298e-15 -3.05311e-15 2.37588e-14 3.17676 -10.5981 7.02496
323 2 13.9578 13.9578 13.9578 -1.33782e-14 -1.66533e-15 -3.55271e-15 -5.13877 5.03129 4.6568
324 2 13.9578 11.42 13.9578 6.38378e-15 2.39947e-14 -5.46091e-15 2.36835 4.05244 2.072
ITEM: TIMESTEP
1
ITEM: NUMBER OF ATOMS
324
ITEM: BOX BOUNDS pp pp pp