LAMMPS data file: WMoTaV BCC random HEA (a=3.16 A)

250 atoms
4 atom types

0.0 15.800000 xlo xhi
0.0 15.800000 ylo yhi
0.0 15.800000 zlo zhi

Masses

1 183.84    # W
2 95.95     # Mo
3 180.9479  # Ta
4 50.9415   # V

Atoms # atomic

1 1 0.000000 0.000000 0.000000
2 2 1.580000 1.580000 1.580000
3 1 0.000000 0.000000 3.160000
4 3 1.580000 1.580000 4.740000
5 1 0.000000 0.000000 6.320000
6 3 1.580000 1.580000 7.900000
7 4 0.000000 0.000000 9.480000
8 2 1.580000 1.580000 11.060000
9 2 0.000000 0.000000 12.640000
10 2 1.580000 1.580000 14.220000
11 2 0.000000 3.160000 0.000000
12 3 1.580000 4.740000 1.580000
13 4 0.000000 3.160000 3.160000
14 3 1.580000 4.740000 4.740000
15 3 0.000000 3.160000 6.320000
16 3 1.580000 4.740000 7.900000
17 1 0.000000 3.160000 9.480000
18 1 1.580000 4.740000 11.060000
19 2 0.000000 3.160000 12.640000
20 1 1.580000 4.740000 14.220000
21 2 0.000000 6.320000 0.000000
22 2 1.580000 7.900000 1.580000
23 2 0.000000 6.320000 3.160000
24 4 1.580000 7.900000 4.740000
25 3 0.000000 6.320000 6.320000
26 3 1.580000 7.900000 7.900000
27 4 0.000000 6.320000 9.480000
28 3 1.580000 7.900000 11.060000
29 3 0.000000 6.320000 12.640000
30 1 1.580000 7.900000 14.220000
31 2 0.000000 9.480000 0.000000
32 2 1.580000 11.060000 1.580000
33 4 0.000000 9.480000 3.160000
34 1 1.580000 11.060000 4.740000
35 3 0.000000 9.480000 6.320000
36 2 1.580000 11.060000 7.900000
37 1 0.000000 9.480000 9.480000
38 4 1.580000 11.060000 11.060000
39 3 0.000000 9.480000 12.640000
40 1 1.580000 11.060000 14.220000
41 2 0.000000 12.640000 0.000000
42 1 1.580000 14.220000 1.580000
43 3 0.000000 12.640000 3.160000
44 4 1.580000 14.220000 4.740000
45 3 0.000000 12.640000 6.320000
46 3 1.580000 14.220000 7.900000
47 1 0.000000 12.640000 9.480000
48 4 1.580000 14.220000 11.060000
49 1 0.000000 12.640000 12.640000
50 4 1.580000 14.220000 14.220000
51 4 3.160000 0.000000 0.000000
52 4 4.740000 1.580000 1.580000
53 4 3.160000 0.000000 3.160000
54 2 4.740000 1.580000 4.740000
55 4 3.160000 0.000000 6.320000
56 3 4.740000 1.580000 7.900000
57 2 3.160000 0.000000 9.480000
58 3 4.740000 1.580000 11.060000
59 4 3.160000 0.000000 12.640000
60 1 4.740000 1.580000 14.220000
61 3 3.160000 3.160000 0.000000
62 4 4.740000 4.740000 1.580000
63 2 3.160000 3.160000 3.160000
64 1 4.740000 4.740000 4.740000
65 3 3.160000 3.160000 6.320000
66 2 4.740000 4.740000 7.900000
67 4 3.160000 3.160000 9.480000
68 1 4.740000 4.740000 11.060000
69 3 3.160000 3.160000 12.640000
70 2 4.740000 4.740000 14.220000
71 2 3.160000 6.320000 0.000000
72 4 4.740000 7.900000 1.580000
73 3 3.160000 6.320000 3.160000
74 3 4.740000 7.900000 4.740000
75 1 3.160000 6.320000 6.320000
76 2 4.740000 7.900000 7.900000
77 1 3.160000 6.320000 9.480000
78 3 4.740000 7.900000 11.060000
79 4 3.160000 6.320000 12.640000
80 3 4.740000 7.900000 14.220000
81 1 3.160000 9.480000 0.000000
82 2 4.740000 11.060000 1.580000
83 3 3.160000 9.480000 3.160000
84 4 4.740000 11.060000 4.740000
85 1 3.160000 9.480000 6.320000
86 1 4.740000 11.060000 7.900000
87 1 3.160000 9.480000 9.480000
88 1 4.740000 11.060000 11.060000
89 4 3.160000 9.480000 12.640000
90 3 4.740000 11.060000 14.220000
91 3 3.160000 12.640000 0.000000
92 2 4.740000 14.220000 1.580000
93 4 3.160000 12.640000 3.160000
94 1 4.740000 14.220000 4.740000
95 2 3.160000 12.640000 6.320000
96 2 4.740000 14.220000 7.900000
97 3 3.160000 12.640000 9.480000
98 3 4.740000 14.220000 11.060000
99 3 3.160000 12.640000 12.640000
100 3 4.740000 14.220000 14.220000
101 2 6.320000 0.000000 0.000000
102 4 7.900000 1.580000 1.580000
103 1 6.320000 0.000000 3.160000
104 1 7.900000 1.580000 4.740000
105 1 6.320000 0.000000 6.320000
106 4 7.900000 1.580000 7.900000
107 2 6.320000 0.000000 9.480000
108 1 7.900000 1.580000 11.060000
109 1 6.320000 0.000000 12.640000
110 4 7.900000 1.580000 14.220000
111 4 6.320000 3.160000 0.000000
112 2 7.900000 4.740000 1.580000
113 3 6.320000 3.160000 3.160000
114 3 7.900000 4.740000 4.740000
115 3 6.320000 3.160000 6.320000
116 1 7.900000 4.740000 7.900000
117 4 6.320000 3.160000 9.480000
118 4 7.900000 4.740000 11.060000
119 1 6.320000 3.160000 12.640000
120 3 7.900000 4.740000 14.220000
121 2 6.320000 6.320000 0.000000
122 4 7.900000 7.900000 1.580000
123 4 6.320000 6.320000 3.160000
124 3 7.900000 7.900000 4.740000
125 4 6.320000 6.320000 6.320000
126 1 7.900000 7.900000 7.900000
127 2 6.320000 6.320000 9.480000
128 1 7.900000 7.900000 11.060000
129 4 6.320000 6.320000 12.640000
130 3 7.900000 7.900000 14.220000
131 2 6.320000 9.480000 0.000000
132 2 7.900000 11.060000 1.580000
133 1 6.320000 9.480000 3.160000
134 4 7.900000 11.060000 4.740000
135 4 6.320000 9.480000 6.320000
136 1 7.900000 11.060000 7.900000
137 4 6.320000 9.480000 9.480000
138 3 7.900000 11.060000 11.060000
139 2 6.320000 9.480000 12.640000
140 1 7.900000 11.060000 14.220000
141 1 6.320000 12.640000 0.000000
142 1 7.900000 14.220000 1.580000
143 3 6.320000 12.640000 3.160000
144 1 7.900000 14.220000 4.740000
145 2 6.320000 12.640000 6.320000
146 3 7.900000 14.220000 7.900000
147 1 6.320000 12.640000 9.480000
148 3 7.900000 14.220000 11.060000
149 3 6.320000 12.640000 12.640000
150 2 7.900000 14.220000 14.220000
151 2 9.480000 0.000000 0.000000
152 2 11.060000 1.580000 1.580000
153 3 9.480000 0.000000 3.160000
154 2 11.060000 1.580000 4.740000
155 3 9.480000 0.000000 6.320000
156 1 11.060000 1.580000 7.900000
157 2 9.480000 0.000000 9.480000
158 4 11.060000 1.580000 11.060000
159 2 9.480000 0.000000 12.640000
160 1 11.060000 1.580000 14.220000
161 2 9.480000 3.160000 0.000000
162 3 11.060000 4.740000 1.580000
163 1 9.480000 3.160000 3.160000
164 1 11.060000 4.740000 4.740000
165 1 9.480000 3.160000 6.320000
166 1 11.060000 4.740000 7.900000
167 4 9.480000 3.160000 9.480000
168 2 11.060000 4.740000 11.060000
169 3 9.480000 3.160000 12.640000
170 1 11.060000 4.740000 14.220000
171 4 9.480000 6.320000 0.000000
172 4 11.060000 7.900000 1.580000
173 2 9.480000 6.320000 3.160000
174 3 11.060000 7.900000 4.740000
175 2 9.480000 6.320000 6.320000
176 2 11.060000 7.900000 7.900000
177 3 9.480000 6.320000 9.480000
178 2 11.060000 7.900000 11.060000
179 2 9.480000 6.320000 12.640000
180 2 11.060000 7.900000 14.220000
181 2 9.480000 9.480000 0.000000
182 1 11.060000 11.060000 1.580000
183 1 9.480000 9.480000 3.160000
184 4 11.060000 11.060000 4.740000
185 2 9.480000 9.480000 6.320000
186 4 11.060000 11.060000 7.900000
187 1 9.480000 9.480000 9.480000
188 4 11.060000 11.060000 11.060000
189 1 9.480000 9.480000 12.640000
190 3 11.060000 11.060000 14.220000
191 2 9.480000 12.640000 0.000000
192 4 11.060000 14.220000 1.580000
193 3 9.480000 12.640000 3.160000
194 3 11.060000 14.220000 4.740000
195 4 9.480000 12.640000 6.320000
196 1 11.060000 14.220000 7.900000
197 1 9.480000 12.640000 9.480000
198 2 11.060000 14.220000 11.060000
199 2 9.480000 12.640000 12.640000
200 4 11.060000 14.220000 14.220000
201 4 12.640000 0.000000 0.000000
202 3 14.220000 1.580000 1.580000
203 3 12.640000 0.000000 3.160000
204 3 14.220000 1.580000 4.740000
205 2 12.640000 0.000000 6.320000
206 4 14.220000 1.580000 7.900000
207 2 12.640000 0.000000 9.480000
208 1 14.220000 1.580000 11.060000
209 1 12.640000 0.000000 12.640000
210 4 14.220000 1.580000 14.220000
211 3 12.640000 3.160000 0.000000
212 4 14.220000 4.740000 1.580000
213 3 12.640000 3.160000 3.160000
214 1 14.220000 4.740000 4.740000
215 4 12.640000 3.160000 6.320000
216 4 14.220000 4.740000 7.900000
217 3 12.640000 3.160000 9.480000
218 4 14.220000 4.740000 11.060000
219 3 12.640000 3.160000 12.640000
220 3 14.220000 4.740000 14.220000
221 4 12.640000 6.320000 0.000000
222 1 14.220000 7.900000 1.580000
223 1 12.640000 6.320000 3.160000
224 1 14.220000 7.900000 4.740000
225 4 12.640000 6.320000 6.320000
226 4 14.220000 7.900000 7.900000
227 2 12.640000 6.320000 9.480000
228 4 14.220000 7.900000 11.060000
229 3 12.640000 6.320000 12.640000
230 4 14.220000 7.900000 14.220000
231 3 12.640000 9.480000 0.000000
232 2 14.220000 11.060000 1.580000
233 4 12.640000 9.480000 3.160000
234 2 14.220000 11.060000 4.740000
235 2 12.640000 9.480000 6.320000
236 4 14.220000 11.060000 7.900000
237 2 12.640000 9.480000 9.480000
238 1 14.220000 11.060000 11.060000
239 1 12.640000 9.480000 12.640000
240 4 14.220000 11.060000 14.220000
241 4 12.640000 12.640000 0.000000
242 2 14.220000 14.220000 1.580000
243 3 12.640000 12.640000 3.160000
244 1 14.220000 14.220000 4.740000
245 4 12.640000 12.640000 6.320000
246 1 14.220000 14.220000 7.900000
247 2 12.640000 12.640000 9.480000
248 4 14.220000 14.220000 11.060000
249 2 12.640000 12.640000 12.640000
250 2 14.220000 14.220000 14.220000
