ITEM: TIMESTEP
0
ITEM: NUMBER OF ATOMS
432
ITEM: BOX BOUNDS pp pp pp
0.0000000000000000e+00 1.8990000000000002e+01
0.0000000000000000e+00 1.8990000000000002e+01
0.0000000000000000e+00 1.8990000000000002e+01
ITEM: ATOMS id type x y z fx fy fz vx vy vz
1 1 0 0 0 -2.56462e-14 -2.54935e-14 -2.53512e-14 -0.734375 -0.167669 -0.852557
2 1 1.5825 1.5825 1.5825 -8.06993e-15 -7.97973e-15 -8.25034e-15 0.561104 1.64322 -0.383708
3 1 3.165 0 0 1.08941e-15 -2.54814e-14 -2.47372e-14 -0.166118 -2.05648 -0.216411
4 1 4.7475 1.5825 1.5825 -1.33274e-14 -7.71605e-15 -8.10766e-15 -0.623581 -0.684539 0.343232
5 1 6.33 0 0 3.88361e-15 -2.88103e-14 -2.89213e-14 -1.20469 0.269111 -0.851485
6 1 7.9125 1.5825 1.5825 1.93979e-14 -7.82707e-15 -8.6077e-15 -1.71342 0.33973 1.09102
7 1 9.495 0 0 -1.76504e-14 -2.86438e-14 -2.86993e-14 -0.861324 0.713747 1.32355
8 1 11.0775 1.5825 1.5825 -4.68212e-15 -6.93196e-15 -7.55559e-15 -0.576901 0.661828 1.1829
9 1 12.66 0 0 9.48026e-16 -2.85882e-14 -2.92821e-14 1.27285 0.958789 0.843305
10 1 14.2425 1.5825 1.5825 -2.08167e-17 -7.18349e-15 -7.36564e-15 -0.651771 0.319945 1.33051
11 1 15.825 0 0 1.00059e-14 -2.8394e-14 -2.94053e-14 -1.24696 -0.0289992 0.464994
12 1 17.4075 1.5825 1.5825 3.78586e-14 -8.08381e-15 -8.46198e-15 0.00938216 1.44255 -0.839927
13 1 0 3.165 0 -2.58682e-14 1.37737e-15 -2.45017e-14 1.8179 -1.42861 1.53803
14 1 1.5825 4.7475 1.5825 -7.41768e-15 -1.31954e-14 -7.74077e-15 0.656837 -0.401746 1.29934
15 1 3.165 3.165 0 2.36616e-15 2.90566e-15 -2.67182e-14 -1.74429 0.860416 -0.900498
16 1 4.7475 4.7475 1.5825 -1.12134e-14 -1.10181e-14 -7.70911e-15 -1.69185 1.7502 -0.0356144
17 1 6.33 3.165 0 3.89098e-15 8.03524e-15 -2.85431e-14 -1.43689 1.46455 -0.34271
18 1 7.9125 4.7475 1.5825 1.50054e-14 -8.20091e-15 -7.35523e-15 -0.98668 -0.0294407 1.16098
19 1 9.495 3.165 0 -1.40655e-14 5.46091e-15 -2.73774e-14 -1.76202 -0.921796 1.80744
20 1 11.0775 4.7475 1.5825 -3.91284e-15 -1.19692e-14 -7.96585e-15 -0.110516 -0.911702 1.01951
21 1 12.66 3.165 0 8.03091e-16 8.43769e-15 -2.88155e-14 -1.45955 -1.93523 0.606775
22 1 14.2425 4.7475 1.5825 -2.77556e-16 -1.24185e-14 -7.63192e-15 0.863523 -0.299526 -1.28903
23 1 15.825 3.165 0 9.90874e-15 8.66564e-15 -2.85934e-14 1.75209 0.335096 0.307007
24 1 17.4075 4.7475 1.5825 3.02536e-14 -1.13613e-14 -7.03257e-15 -1.32692 -0.737497 -1.01357
25 1 0 6.33 0 -2.85882e-14 3.71751e-15 -2.85882e-14 1.10062 -0.367006 0.826871
26 1 1.5825 7.9125 1.5825 -7.56339e-15 1.93822e-14 -8.58124e-15 -0.913994 0.136796 -0.882881
27 1 3.165 6.33 0 7.5287e-15 4.02369e-15 -2.77608e-14 -1.83179 -0.673729 -0.583405
28 1 4.7475 7.9125 1.5825 -8.51576e-15 1.51667e-14 -7.77156e-15 -0.492684 -0.153597 0.297274
29 1 6.33 6.33 0 3.58047e-15 3.41567e-15 -2.86993e-14 1.46246 -1.99503 1.83863
30 1 7.9125 7.9125 1.5825 1.50607e-14 1.48449e-14 -7.44543e-15 0.604241 0.259133 1.87384
31 1 9.495 6.33 0 -1.6142e-14 3.13508e-15 -2.53686e-14 -0.0878211 -0.926021 -0.219493
32 1 11.0775 7.9125 1.5825 -4.87284e-15 1.93723e-14 -8.29198e-15 0.333977 -1.13182 -1.58666
33 1 12.66 6.33 0 3.9003e-16 2.39175e-15 -2.94209e-14 -1.03752 1.81009 0.138909
34 1 14.2425 7.9125 1.5825 -4.44089e-16 1.8811e-14 -8.112e-15 1.89161 -0.25114 0.329833
35 1 15.825 6.33 0 1.02487e-14 3.16317e-15 -2.88797e-14 0.848391 1.03157 -1.43843
36 1 17.4075 7.9125 1.5825 3.0087e-14 1.74253e-14 -7.74728e-15 -1.44507 1.92131 -1.39012
37 1 0 9.495 0 -2.84217e-14 -1.79843e-14 -2.87409e-14 -1.06055 0.140525 0.926129
38 1 1.5825 11.0775 1.5825 -7.50094e-15 -5.16483e-15 -7.70477e-15 -0.522854 0.0277218 0.140581
39 1 3.165 9.495 0 5.63438e-15 -1.45522e-14 -2.68258e-14 1.58001 1.61121 1.23728
40 1 4.7475 11.0775 1.5825 -1.23421e-14 -4.04017e-15 -7.11237e-15 -1.72704 -1.27752 0.652203
41 1 6.33 9.495 0 3.01769e-15 -1.60232e-14 -2.54796e-14 1.45458 -0.483448 -0.254279
42 1 7.9125 11.0775 1.5825 1.95114e-14 -4.53197e-15 -7.75768e-15 0.0369074 1.44416 1.90877
43 1 9.495 9.495 0 -1.48878e-14 -1.48796e-14 -2.56462e-14 -1.4313 -1.90575 1.01639
44 1 11.0775 11.0775 1.5825 -3.88022e-15 -4.80041e-15 -7.57033e-15 -1.1765 -0.757446 0.519909
45 1 12.66 9.495 0 6.80899e-16 -1.52851e-14 -2.69784e-14 1.79563 1.60429 -1.33424
46 1 14.2425 11.0775 1.5825 -5.13478e-16 -4.12257e-15 -8.31193e-15 0.757112 0.844531 -0.0364738
47 1 15.825 9.495 0 9.27036e-15 -1.57541e-14 -2.58127e-14 0.351448 0.322451 -1.19834
48 1 17.4075 11.0775 1.5825 3.17524e-14 -4.56319e-15 -8.74995e-15 0.0619266 -0.0915255 0.614795
49 1 0 12.66 0 -2.85327e-14 1.33877e-15 -2.9185e-14 1.73299 -0.156437 1.25298
50 1 1.5825 14.2425 1.5825 -7.24421e-15 -4.25692e-16 -7.9498e-15 -1.62817 0.67576 -0.016721
51 1 3.165 12.66 0 8.6528e-15 8.54785e-16 -2.82092e-14 -0.420559 -1.29696 -1.40695
52 1 4.7475 14.2425 1.5825 -1.2503e-14 2.77556e-17 -7.32834e-15 0.162598 -0.305565 -1.33739
53 1 6.33 12.66 0 2.60957e-15 7.04298e-16 -2.89768e-14 0.52124 1.22726 0.544776
54 1 7.9125 14.2425 1.5825 1.89979e-14 1.31839e-16 -7.74728e-15 1.75223 -1.36059 0.484577
55 1 9.495 12.66 0 -1.48807e-14 6.29271e-16 -2.69229e-14 0.438624 0.53718 0.174023
56 1 11.0775 14.2425 1.5825 -3.61302e-15 -1.31839e-16 -7.84962e-15 -0.43251 0.739387 -1.95137
57 1 12.66 12.66 0 7.95824e-16 1.48406e-15 -3.10307e-14 0.811717 1.46371 1.76104
58 1 14.2425 14.2425 1.5825 -2.01228e-16 -3.51282e-17 -8.34445e-15 -0.904176 -1.2241 1.61899
59 1 15.825 12.66 0 9.20791e-15 1.29425e-15 -2.92127e-14 1.87452 0.494797 -2.00165
60 1 17.4075 14.2425 1.5825 3.09752e-14 2.22045e-16 -8.08121e-15 -0.13443 -1.09036 1.26771
61 1 0 15.825 0 -2.85882e-14 9.88098e-15 -2.88519e-14 -1.66114 -1.6567 -1.12646
62 1 1.5825 17.4075 1.5825 -7.79932e-15 3.8039e-14 -8.08468e-15 -1.19424 1.45056 -0.153207
63 1 3.165 15.825 0 8.51402e-15 1.00952e-14 -2.85518e-14 -1.56313 -1.94239 1.92013
64 1 4.7475 17.4075 1.5825 -1.10784e-14 3.03091e-14 -6.81052e-15 -1.20472 -0.283792 -0.613497
65 1 6.33 15.825 0 2.92456e-15 9.88098e-15 -2.9074e-14 0.993064 1.80002 1.31487
66 1 7.9125 17.4075 1.5825 1.74117e-14 2.98095e-14 -7.69523e-15 -0.295128 0.714869 -0.120522
67 1 9.495 15.825 0 -1.56699e-14 9.1524e-15 -2.634e-14 -0.0539404 0.383344 -0.390266
68 1 11.0775 17.4075 1.5825 -4.4687e-15 3.11973e-14 -8.36831e-15 -0.835783 -0.160051 1.3876
69 1 12.66 15.825 0 8.26833e-16 9.07607e-15 -2.93099e-14 0.510429 -1.91467 1.1697
70 1 14.2425 17.4075 1.5825 1.38778e-17 3.10967e-14 -7.58595e-15 -1.31889 0.44553 1.85887
71 1 15.825 15.825 0 9.63118e-15 9.40914e-15 -2.96031e-14 -0.0447086 1.33644 1.21191
72 1 17.4075 17.4075 1.5825 3.08087e-14 3.12667e-14 -7.58421e-15 1.94396 -1.10152 0.308087
73 1 0 0 3.165 -2.55351e-14 -2.52853e-14 1.62023e-15 0.588731 -0.706969 0.760416
74 1 1.5825 1.5825 4.7475 -7.80626e-15 -7.50875e-15 -1.21689e-14 -1.8541 1.7721 -1.32932
75 1 3.165 0 3.165 2.6576e-15 -2.71545e-14 1.9121e-15 -1.87107 0.493357 -1.85981
76 1 4.7475 1.5825 4.7475 -1.5587e-14 -7.47319e-15 -6.99744e-15 1.68924 -0.989855 -1.76363
77 1 6.33 0 3.165 3.90139e-15 -3.30846e-14 3.69149e-15 -0.86431 -0.763613 -1.67947
78 1 7.9125 1.5825 4.7475 1.92834e-14 -7.42462e-15 -4.00331e-15 1.41162 -0.0895644 1.11055
79 1 9.495 0 3.165 -1.70616e-14 -3.09752e-14 3.18842e-15 -1.27463 1.56963 0.49681
80 1 11.0775 1.5825 4.7475 -3.79274e-15 -7.56339e-15 -4.54324e-15 -0.917403 -0.343716 -1.36608
81 1 12.66 0 3.165 9.80457e-16 -3.44169e-14 4.12864e-15 1.23853 0.381017 1.08445
82 1 14.2425 1.5825 4.7475 6.93889e-18 -8.22996e-15 -4.69243e-15 -1.71015 -1.46677 1.42762
83 1 15.825 0 3.165 1.0672e-14 -3.36398e-14 4.28499e-15 -0.438706 -1.94798 1.40565
84 1 17.4075 1.5825 4.7475 3.36398e-14 -8.10463e-15 -7.33753e-15 -0.378034 -0.795876 -0.1433
85 1 0 3.165 3.165 -2.72005e-14 2.5778e-15 1.85485e-15 -1.42853 -0.0436756 1.33877
86 1 1.5825 4.7475 4.7475 -7.73687e-15 -1.55381e-14 -7.00048e-15 -0.371341 -1.93061 1.16574
87 1 3.165 3.165 3.165 4.32987e-15 4.34808e-15 3.13465e-15 1.0176 0.261741 1.06906
88 1 4.7475 4.7475 4.7475 -1.02326e-14 -1.00393e-14 -9.3649e-15 -0.690955 -0.84686 -0.790351
89 1 6.33 3.165 3.165 3.88838e-15 9.74915e-15 1.00831e-15 -0.906873 -1.92151 -0.236398
90 1 7.9125 4.7475 4.7475 1.80085e-14 -5.90717e-15 -6.17952e-15 0.268991 -1.74489 1.84623
91 1 9.495 3.165 3.165 -1.64373e-14 6.30745e-15 1.42768e-15 -1.57889 0.954723 1.49415
92 1 11.0775 4.7475 4.7475 -4.86003e-15 -8.51619e-15 -8.41644e-15 1.72868 0.534589 1.26963
93 1 12.66 3.165 3.165 1.18947e-15 1.09149e-14 5.10009e-16 2.16525 0.97649 -1.95165
94 1 14.2425 4.7475 4.7475 9.71445e-17 -8.69357e-15 -8.92949e-15 0.224805 -1.767 -0.451347
95 1 15.825 3.165 3.165 9.90874e-15 1.0263e-14 1.25854e-15 -0.732701 -0.439982 -0.157932
96 1 17.4075 4.7475 4.7475 3.40838e-14 -7.27733e-15 -7.98493e-15 0.185341 0.488969 1.49944
97 1 0 6.33 3.165 -3.33622e-14 3.39225e-15 3.06005e-15 1.32601 1.6312 0.445295
98 1 1.5825 7.9125 4.7475 -7.4038e-15 1.90191e-14 -4.33724e-15 1.68768 1.28585 -0.820125
99 1 3.165 6.33 3.165 9.6867e-15 4.34548e-15 7.79325e-16 1.88022 -1.02836 0.32228
100 1 4.7475 7.9125 4.7475 -6.08237e-15 1.84576e-14 -5.9501e-15 -0.301775 -1.44635 -0.418193
101 1 6.33 6.33 3.165 3.31592e-15 3.52929e-15 1.40166e-15 0.542253 1.33557 -1.13562
102 1 7.9125 7.9125 4.7475 1.6376e-14 1.65649e-14 -5.50688e-15 -0.817778 -1.91107 0.742012
103 1 9.495 6.33 3.165 -2.0061e-14 4.15423e-15 1.66533e-15 1.28753 0.0901864 -1.04579
104 1 11.0775 7.9125 4.7475 -4.30125e-15 2.04967e-14 -4.89496e-15 -0.672471 1.39826 1.48583
105 1 12.66 6.33 3.165 6.8934e-16 3.29381e-15 2.29677e-15 -0.135868 -0.906185 0.41256
106 1 14.2425 7.9125 4.7475 -3.67761e-16 2.0001e-14 -3.72185e-15 -0.660186 0.914577 0.395649
107 1 15.825 6.33 3.165 1.02141e-14 3.21024e-15 1.26028e-15 -0.818164 -0.277349 -1.90295
108 1 17.4075 7.9125 4.7475 3.03646e-14 1.49631e-14 -6.66698e-15 -1.06569 -0.899267 -1.00423
109 1 0 9.495 3.165 -3.03646e-14 -1.67766e-14 2.99066e-15 -0.200461 1.03938 0.0172262
110 1 1.5825 11.0775 4.7475 -7.55646e-15 -4.28583e-15 -4.90536e-15 2.00592 1.41412 0.108094
111 1 3.165 9.495 3.165 6.82787e-15 -1.5946e-14 1.38778e-15 -0.652221 0.862092 -1.12689
112 1 4.7475 11.0775 4.7475 -8.03703e-15 -5.38545e-15 -8.86964e-15 -0.170838 -0.227277 -0.34543
113 1 6.33 9.495 3.165 3.2114e-15 -2.02885e-14 1.21431e-15 1.99409 1.39428 -0.605454
114 1 7.9125 11.0775 4.7475 2.01552e-14 -4.90363e-15 -4.17765e-15 -1.79243 -0.710554 1.3699
115 1 9.495 9.495 3.165 -1.72621e-14 -1.73615e-14 3.82333e-15 -0.717799 -1.5862 -1.21108
116 1 11.0775 11.0775 4.7475 -5.10321e-15 -5.0758e-15 -4.55105e-15 1.02783 1.73977 -0.983757
117 1 12.66 9.495 3.165 9.15799e-16 -2.03947e-14 1.93595e-15 -1.01275 0.00229421 -1.12899
118 1 14.2425 11.0775 4.7475 -1.10328e-15 -5.41711e-15 -4.64082e-15 1.0578 -1.81982 0.493722
119 1 15.825 9.495 3.165 9.11771e-15 -1.98729e-14 1.75381e-15 -0.0676056 -2.03971 1.70004
120 1 17.4075 11.0775 4.7475 3.41949e-14 -5.05852e-15 -6.84218e-15 0.594518 -0.834358 -1.69311
121 1 0 12.66 3.165 -3.36398e-14 1.46469e-15 4.56926e-15 -0.630758 0.425937 1.26416
122 1 1.5825 14.2425 4.7475 -7.92422e-15 -2.14995e-16 -4.73233e-15 -0.404939 1.52476 1.16066
123 1 3.165 12.66 3.165 1.08108e-14 4.59268e-16 1.77375e-16 0.923133 -0.766668 -0.262539
124 1 4.7475 14.2425 4.7475 -8.51035e-15 -4.16334e-17 -8.74821e-15 -0.810765 -1.71356 0.934855
125 1 6.33 12.66 3.165 2.96807e-15 7.97539e-16 9.08995e-16 0.0444649 -1.39382 1.88344
126 1 7.9125 14.2425 4.7475 2.05425e-14 -3.88578e-16 -3.7817e-15 -1.10545 0.28787 -2.0991
127 1 9.495 12.66 3.165 -2.03819e-14 1.15272e-15 1.4988e-15 1.45105 1.02131 0.552142
128 1 11.0775 14.2425 4.7475 -5.98866e-15 -1.11716e-15 -4.07356e-15 -0.243676 1.11021 1.46246
129 1 12.66 12.66 3.165 1.32649e-15 1.76465e-15 1.51962e-15 0.791079 -0.458781 0.414444
130 1 14.2425 14.2425 4.7475 -4.64906e-16 -6.81313e-16 -3.96471e-15 -1.45701 0.112738 0.57558
131 1 15.825 12.66 3.165 9.97119e-15 1.19568e-15 1.13754e-15 0.041895 0.0527903 -0.568469
132 1 17.4075 14.2425 4.7475 3.4972e-14 -2.98372e-16 -7.26936e-15 -1.07117 0.292699 -2.10366
133 1 0 15.825 3.165 -3.36398e-14 1.0273e-14 4.11818e-15 2.02241 -1.44633 -0.0358387
134 1 1.5825 17.4075 4.7475 -7.79238e-15 3.42643e-14 -7.08972e-15 -1.14819 0.249945 1.66011
135 1 3.165 15.825 3.165 1.01308e-14 9.30462e-15 8.53484e-16 -0.879577 -1.70962 -1.814
136 1 4.7475 17.4075 4.7475 -8.11351e-15 3.39728e-14 -8.13759e-15 0.688267 0.290774 -1.98817
137 1 6.33 15.825 3.165 3.40991e-15 9.87405e-15 1.17528e-15 -0.7475 -1.63023 1.45256
138 1 7.9125 17.4075 4.7475 1.56647e-14 2.9643e-14 -6.60713e-15 0.731083 1.62856 0.658588
139 1 9.495 15.825 3.165 -1.96266e-14 9.57567e-15 1.11456e-15 -0.792336 -0.390225 0.156305
140 1 11.0775 17.4075 4.7475 -4.90677e-15 3.43614e-14 -7.00481e-15 2.07804 0.183831 -1.67293
141 1 12.66 15.825 3.165 1.00895e-15 1.01655e-14 1.49533e-15 1.73355 1.23103 -0.991267
142 1 14.2425 17.4075 4.7475 2.77556e-17 3.54959e-14 -7.3253e-15 -1.43591 1.71026 -1.88847
143 1 15.825 15.825 3.165 1.0103e-14 9.67672e-15 1.55601e-15 -1.17453 -0.072879 1.53846
144 1 17.4075 17.4075 4.7475 3.10307e-14 3.1336e-14 -7.71041e-15 -0.237492 -0.470601 0.598913
145 1 0 0 6.33 -2.87548e-14 -2.86021e-14 4.15726e-15 -1.4296 -1.80241 1.01692
146 1 1.5825 1.5825 7.9125 -8.06993e-15 -7.58725e-15 1.7906e-14 -0.335868 1.79636 0.661692
147 1 3.165 0 6.33 8.13932e-15 -2.89855e-14 3.77042e-15 -1.38199 -1.02345 1.81046
148 1 4.7475 1.5825 7.9125 -8.69313e-15 -7.55646e-15 1.46519e-14 1.92356 0.978964 -0.94591
149 1 6.33 0 6.33 3.43302e-15 -2.88103e-14 3.84848e-15 2.04384 1.69562 -0.353587
150 1 7.9125 1.5825 7.9125 1.48989e-14 -7.78544e-15 1.49182e-14 -1.1876 -0.68501 0.545837
151 1 9.495 0 6.33 -1.64992e-14 -2.67009e-14 4.30428e-15 -0.701732 0.628996 1.26915
152 1 11.0775 1.5825 7.9125 -5.20937e-15 -8.23647e-15 1.90214e-14 -1.77122 -1.29801 1.22944
153 1 12.66 0 6.33 7.27686e-16 -2.98095e-14 3.25738e-15 0.417327 -0.290829 -1.21192
154 1 14.2425 1.5825 7.9125 1.04083e-16 -8.29241e-15 1.85918e-14 -0.829075 -1.03921 0.605054
155 1 15.825 0 6.33 9.61731e-15 -2.89213e-14 3.46525e-15 0.343307 1.46515 1.62215
156 1 17.4075 1.5825 7.9125 2.9865e-14 -8.37178e-15 1.66567e-14 -1.78226 -0.223683 -0.809899
157 1 0 3.165 6.33 -2.91434e-14 7.6536e-15 3.71491e-15 -0.75917 1.0756 0.0737166
158 1 1.5825 4.7475 7.9125 -7.55646e-15 -8.87224e-15 1.39091e-14 1.86321 1.15816 -0.294558
159 1 3.165 3.165 6.33 5.84255e-15 5.28787e-15 4.37454e-15 0.751758 0.129931 1.4322
160 1 4.7475 4.7475 7.9125 -8.79982e-15 -9.08518e-15 1.59397e-14 -0.608246 1.39658 1.66305
161 1 6.33 3.165 6.33 3.50891e-15 1.47105e-15 4.19977e-15 -0.11684 -1.67614 0.761316
162 1 7.9125 4.7475 7.9125 1.83109e-14 -6.7446e-15 1.4903e-14 1.08816 1.19254 1.36828
163 1 9.495 3.165 6.33 -2.07875e-14 2.3731e-15 4.81082e-15 0.464076 -1.83154 -1.72475
164 1 11.0775 4.7475 7.9125 -5.37461e-15 -6.85693e-15 1.63856e-14 -0.735117 -0.464319 0.657465
165 1 12.66 3.165 6.33 1.71965e-15 1.71391e-15 4.09004e-15 0.618675 -0.632522 -1.93973
166 1 14.2425 4.7475 7.9125 -2.42861e-16 -6.4111e-15 1.67315e-14 1.80566 -0.185745 -0.296458
167 1 15.825 3.165 6.33 9.78384e-15 1.40994e-15 3.92785e-15 1.29702 1.29367 0.644552
168 1 17.4075 4.7475 7.9125 3.19189e-14 -7.45974e-15 1.3151e-14 -1.33721 0.866434 -1.19609
169 1 0 6.33 6.33 -2.93654e-14 2.65543e-15 3.93262e-15 1.34789 0.0235489 -1.0076
170 1 1.5825 7.9125 7.9125 -7.38992e-15 1.47396e-14 1.37976e-14 0.0728423 0.756659 0.215774
171 1 3.165 6.33 6.33 1.33227e-15 4.00287e-15 4.19803e-15 -0.750303 -0.0411662 -1.12443
172 1 4.7475 7.9125 7.9125 -6.35473e-15 1.82922e-14 1.47811e-14 0.485516 1.40019 1.43656
173 1 6.33 6.33 6.33 4.16334e-15 3.88578e-15 3.9968e-15 -0.383961 1.05146 0.0828276
174 1 7.9125 7.9125 7.9125 1.57097e-14 1.61537e-14 1.26565e-14 0.786861 1.68633 1.75438
175 1 9.495 6.33 6.33 -1.97696e-14 3.52669e-15 3.8294e-15 0.851454 -0.245394 -0.486073
176 1 11.0775 7.9125 7.9125 -5.27356e-15 1.84852e-14 1.27398e-14 -0.0132096 -0.86076 0.96417
177 1 12.66 6.33 6.33 8.60283e-16 3.577e-15 4.21104e-15 1.71272 0.0752864 0.127298
178 1 14.2425 7.9125 7.9125 -1.66533e-16 1.87047e-14 1.27684e-14 1.52086 1.53823 0.308125
179 1 15.825 6.33 6.33 9.14546e-15 3.05866e-15 3.05138e-15 1.21547 -1.65366 1.22883
180 1 17.4075 7.9125 7.9125 2.78111e-14 1.6165e-14 1.30555e-14 -1.84719 0.265205 -1.57044
181 1 0 9.495 6.33 -2.62568e-14 -1.61332e-14 3.698e-15 -0.33529 -0.657813 -0.90507
182 1 1.5825 11.0775 7.9125 -8.54872e-15 -4.79001e-15 1.85535e-14 -1.43703 -0.868126 -1.10344
183 1 3.165 9.495 6.33 2.61596e-15 -2.05504e-14 4.32597e-15 0.231926 0.234779 -1.63115
184 1 4.7475 11.0775 7.9125 -6.51606e-15 -5.90543e-15 1.69149e-14 1.8321 1.78502 0.769704
185 1 6.33 9.495 6.33 2.65519e-15 -1.95148e-14 3.90139e-15 0.0420009 1.83225 -0.849561
186 1 7.9125 11.0775 7.9125 1.8513e-14 -4.96825e-15 1.2601e-14 -1.83977 -0.891264 -0.417365
187 1 9.495 9.495 6.33 -1.55109e-14 -1.62305e-14 4.43352e-15 -1.77489 -2.00308 0.415501
188 1 11.0775 11.0775 7.9125 -5.19029e-15 -4.4964e-15 1.49325e-14 0.0624077 -0.122311 -1.43251
189 1 12.66 9.495 6.33 8.56266e-16 -2.01241e-14 4.50291e-15 0.662109 -1.07098 -1.64851
190 1 14.2425 11.0775 7.9125 -4.3715e-16 -5.30739e-15 1.49815e-14 -1.73864 -1.44552 1.37529
191 1 15.825 9.495 6.33 9.58955e-15 -1.95449e-14 2.6654e-15 0.557866 -0.0252937 1.87348
192 1 17.4075 11.0775 7.9125 2.95874e-14 -5.1131e-15 1.40036e-14 2.0364 -1.66534 -0.265332
193 1 0 12.66 6.33 -2.96985e-14 1.33836e-15 3.43996e-15 0.937856 -0.858081 1.34319
194 1 1.5825 14.2425 7.9125 -8.54872e-15 2.27249e-16 1.88927e-14 0.864138 1.91068 -1.55945
195 1 3.165 12.66 6.33 1.76248e-15 1.29801e-15 4.2054e-15 1.76527 -1.34252 -0.204151
196 1 4.7475 14.2425 7.9125 -6.20684e-15 2.84495e-16 1.74446e-14 -1.52202 -0.768229 1.89324
197 1 6.33 12.66 6.33 3.16649e-15 1.46107e-15 4.25788e-15 1.40417 0.358571 1.22647
198 1 7.9125 14.2425 7.9125 1.9075e-14 -4.71845e-16 1.31358e-14 -0.912447 1.80344 -2.0724
199 1 9.495 12.66 6.33 -1.96221e-14 1.22471e-15 4.39622e-15 -0.17167 -2.04753 0.100129
200 1 11.0775 14.2425 7.9125 -5.67038e-15 -5.55112e-16 1.49884e-14 -0.602785 -0.162301 0.100145
201 1 12.66 12.66 6.33 1.31076e-15 1.71998e-15 4.46518e-15 -0.344326 1.68215 0.57133
202 1 14.2425 14.2425 7.9125 -5.68989e-16 -7.89733e-16 1.51259e-14 1.66348 0.301523 0.124372
203 1 15.825 12.66 6.33 9.30506e-15 1.56549e-15 3.52626e-15 1.05107 -1.31736 0.587599
204 1 17.4075 14.2425 7.9125 3.03646e-14 -8.56953e-16 1.37616e-14 -0.853009 -1.56122 0.629948
205 1 0 15.825 6.33 -2.88658e-14 9.5618e-15 3.23008e-15 0.753914 -0.149697 0.917199
206 1 1.5825 17.4075 7.9125 -8.12544e-15 2.98095e-14 1.69438e-14 -0.462789 -0.905757 -0.511877
207 1 3.165 15.825 6.33 9.22873e-16 9.52623e-15 3.61907e-15 0.497201 -1.05944 1.52063
208 1 4.7475 17.4075 7.9125 -8.05345e-15 3.2141e-14 1.38521e-14 0.32 -0.686427 1.08315
209 1 6.33 15.825 6.33 3.2079e-15 9.01362e-15 3.82637e-15 0.750779 -0.0923644 -1.30995
210 1 7.9125 17.4075 7.9125 1.64933e-14 2.81442e-14 1.31613e-14 -0.902804 1.54207 -0.136945
211 1 9.495 15.825 6.33 -1.96686e-14 9.55486e-15 3.34715e-15 -0.128052 0.599176 -0.776236
212 1 11.0775 17.4075 7.9125 -4.8711e-15 2.99205e-14 1.39394e-14 0.952245 1.55028 -0.0858354
213 1 12.66 15.825 6.33 1.60058e-15 9.79078e-15 3.71231e-15 -1.43117 0.205188 0.16675
214 1 14.2425 17.4075 7.9125 -7.00828e-16 3.01113e-14 1.38149e-14 -0.919447 1.83834 0.143332
215 1 15.825 15.825 6.33 9.24261e-15 9.39743e-15 2.66235e-15 -0.87748 1.06645 0.379352
216 1 17.4075 17.4075 7.9125 3.14748e-14 3.1683e-14 1.46207e-14 1.22342 -2.00411 -0.648901
217 1 0 0 9.495 -2.89213e-14 -2.87964e-14 -1.74947e-14 -1.56156 0.0899045 -1.7263
218 1 1.5825 1.5825 11.0775 -7.32053e-15 -7.71475e-15 -4.25722e-15 1.60818 0.123754 -0.947698
219 1 3.165 0 9.495 5.43315e-15 -2.74355e-14 -1.39324e-14 0.384282 0.268207 0.182311
220 1 4.7475 1.5825 11.0775 -1.24855e-14 -7.32053e-15 -3.60779e-15 0.899083 0.818196 -0.335097
221 1 6.33 0 9.495 3.16487e-15 -2.62568e-14 -1.54646e-14 1.17042 0.0362852 -2.02323
222 1 7.9125 1.5825 11.0775 1.97189e-14 -7.84789e-15 -4.70284e-15 -1.71047 1.22735 -2.09521
223 1 9.495 0 9.495 -1.44479e-14 -2.56462e-14 -1.43787e-14 1.87682 -1.27119 1.57919
224 1 11.0775 1.5825 11.0775 -3.31145e-15 -7.85483e-15 -4.39319e-15 -1.49144 1.78993 -1.875
225 1 12.66 0 9.495 6.12765e-16 -2.64233e-14 -1.50496e-14 2.12706 0.354785 -1.53295
226 1 14.2425 1.5825 11.0775 -6.245e-17 -7.69567e-15 -3.30248e-15 0.747835 -0.883463 0.834745
227 1 15.825 0 9.495 9.42302e-15 -2.61596e-14 -1.53815e-14 1.57188 -1.18943 -0.0694257
228 1 17.4075 1.5825 11.0775 3.08087e-14 -8.19483e-15 -3.72975e-15 -1.57947 -0.656399 -1.49281
229 1 0 3.165 9.495 -2.79221e-14 5.2354e-15 -1.41441e-14 1.6473 0.253957 0.110501
230 1 1.5825 4.7475 11.0775 -7.72299e-15 -1.26432e-14 -3.57006e-15 -0.775978 -1.41706 0.924844
231 1 3.165 3.165 9.495 4.85723e-15 4.46952e-15 -1.46046e-14 -1.83139 -2.03769 -0.852211
232 1 4.7475 4.7475 11.0775 -8.92521e-15 -9.00712e-15 -4.62304e-15 -1.74459 -0.0803618 1.57423
233 1 6.33 3.165 9.495 3.90824e-15 1.41553e-15 -1.93799e-14 0.338437 0.786367 0.372897
234 1 7.9125 4.7475 11.0775 2.02769e-14 -4.09915e-15 -4.41097e-15 -1.76613 -0.919005 0.0139436
235 1 9.495 3.165 9.495 -1.72401e-14 3.54577e-15 -1.68307e-14 -0.409616 0.0178084 -0.094919
236 1 11.0775 4.7475 11.0775 -5.11383e-15 -4.39319e-15 -4.64342e-15 0.105147 -0.0722539 -0.129602
237 1 12.66 3.165 9.495 1.17465e-15 1.74166e-15 -1.91357e-14 1.53685 -1.56882 -1.24205
238 1 14.2425 4.7475 11.0775 -6.66134e-16 -4.91664e-15 -4.23489e-15 -0.0636654 -0.74359 -1.96591
239 1 15.825 3.165 9.495 9.67976e-15 1.87306e-15 -1.8859e-14 0.0318319 1.35995 -1.2026
240 1 17.4075 4.7475 11.0775 3.45279e-14 -7.03994e-15 -4.18589e-15 1.54072 -1.44123 0.489829
241 1 0 6.33 9.495 -2.67009e-14 3.09725e-15 -1.58463e-14 -0.572053 0.986875 -1.90135
242 1 1.5825 7.9125 11.0775 -7.72993e-15 1.89208e-14 -4.0302e-15 1.53234 -0.152397 0.175735
243 1 3.165 6.33 9.495 1.42941e-15 4.32336e-15 -1.9271e-14 -0.0574988 1.44699 0.706955
244 1 4.7475 7.9125 11.0775 -3.51455e-15 2.04715e-14 -4.54498e-15 0.497429 -1.27185 -1.5104
245 1 6.33 6.33 9.495 4.25842e-15 4.20844e-15 -1.48332e-14 -1.82898 1.95626 1.57393
246 1 7.9125 7.9125 11.0775 1.6015e-14 1.6015e-14 -5.52336e-15 -0.575884 1.52011 0.0464145
247 1 9.495 6.33 9.495 -1.85846e-14 3.9543e-15 -1.25863e-14 1.55352 -1.34195 1.27952
248 1 11.0775 7.9125 11.0775 -4.69069e-15 2.07889e-14 -4.52416e-15 2.02843 -1.67764 -0.110707
249 1 12.66 6.33 9.495 1.53316e-15 4.68505e-15 -1.41671e-14 -1.47413 0.527295 0.413996
250 1 14.2425 7.9125 11.0775 -5.96745e-16 2.07538e-14 -4.61783e-15 -0.883837 -0.265252 -1.48758
251 1 15.825 6.33 9.495 9.50628e-15 3.63569e-15 -1.36375e-14 0.254204 1.32653 1.10427
252 1 17.4075 7.9125 11.0775 2.70894e-14 1.68667e-14 -4.05058e-15 -1.27125 1.54504 1.07341
253 1 0 9.495 9.495 -2.55906e-14 -1.4669e-14 -1.43123e-14 -0.526409 1.1512 0.495966
254 1 1.5825 11.0775 11.0775 -8.03524e-15 -2.89354e-15 -3.60389e-15 1.12943 0.892419 1.31574
255 1 3.165 9.495 9.495 4.35763e-15 -1.68025e-14 -1.65974e-14 2.09813 1.10029 0.979843
256 1 4.7475 11.0775 11.0775 -4.19109e-15 -5.02376e-15 -4.2466e-15 1.36337 0.434556 0.03497
257 1 6.33 9.495 9.495 3.7586e-15 -1.82384e-14 -1.28695e-14 -0.0674277 0.951887 -1.53845
258 1 7.9125 11.0775 11.0775 2.02616e-14 -4.57967e-15 -4.2466e-15 1.58193 1.39421 -1.65282
259 1 9.495 9.495 9.495 -1.54199e-14 -1.55028e-14 -1.23178e-14 -1.19662 1.91777 -0.107426
260 1 11.0775 11.0775 11.0775 -4.82947e-15 -4.63518e-15 -4.38538e-15 0.913707 -0.920874 1.07215
261 1 12.66 9.495 9.495 1.28363e-15 -1.88148e-14 -1.23092e-14 -1.40955 -1.65628 1.84744
262 1 14.2425 11.0775 11.0775 -5.89806e-16 -4.30775e-15 -4.17028e-15 -1.54643 -1.26835 0.594927
263 1 15.825 9.495 9.495 8.23647e-15 -1.78909e-14 -1.19267e-14 0.574646 -2.05438 -1.34446
264 1 17.4075 11.0775 11.0775 3.00315e-14 -4.55972e-15 -4.72625e-15 -0.734697 -1.51535 0.558392
265 1 0 12.66 9.495 -2.62013e-14 1.49682e-15 -1.46168e-14 -0.717478 -0.23566 0.780222
266 1 1.5825 14.2425 11.0775 -8.06993e-15 -2.86657e-16 -3.38314e-15 -1.73344 0.690832 1.70359
267 1 3.165 12.66 9.495 2.25514e-15 1.14882e-15 -1.93578e-14 -0.637168 -1.79538 1.40602
268 1 4.7475 14.2425 11.0775 -4.47385e-15 -8.8124e-16 -4.47775e-15 1.62602 -0.212437 1.52158
269 1 6.33 12.66 9.495 4.43774e-15 1.15012e-15 -1.42664e-14 0.134947 1.63502 -0.220599
270 1 7.9125 14.2425 11.0775 2.05131e-14 -5.20417e-16 -4.47949e-15 2.03943 0.60147 1.25569
271 1 9.495 12.66 9.495 -1.84092e-14 1.21778e-15 -1.25407e-14 -0.719965 -1.46073 1.39614
272 1 11.0775 14.2425 11.0775 -4.83641e-15 -3.46945e-16 -4.36847e-15 2.06637 -1.18358 0.979465
273 1 12.66 12.66 9.495 1.35302e-15 1.37347e-15 -1.43462e-14 -0.92837 -2.05325 1.32024
274 1 14.2425 14.2425 11.0775 -5.48173e-16 -8.90781e-16 -3.62384e-15 0.589259 0.0619202 -1.3276
275 1 15.825 12.66 9.495 9.11077e-15 2.05454e-15 -1.36744e-14 -1.35692 -1.77337 -2.01403
276 1 17.4075 14.2425 11.0775 3.04756e-14 -8.32667e-17 -3.9105e-15 -1.27807 0.548764 0.0788359
277 1 0 15.825 9.495 -2.62568e-14 9.53751e-15 -1.53525e-14 -1.37331 -1.20981 -1.73445
278 1 1.5825 17.4075 11.0775 -8.03524e-15 3.11418e-14 -3.74034e-15 -1.48687 1.43327 1.38577
279 1 3.165 15.825 9.495 1.89432e-15 9.52493e-15 -1.85416e-14 -1.78134 -0.8716 1.38281
280 1 4.7475 17.4075 11.0775 -7.36303e-15 3.45279e-14 -4.26308e-15 1.21611 0.874869 -1.46322
281 1 6.33 15.825 9.495 3.47071e-15 9.24261e-15 -1.35972e-14 -0.080353 -1.2084 1.67622
282 1 7.9125 17.4075 11.0775 1.73676e-14 2.74225e-14 -4.21711e-15 2.01775 1.45486 -0.996902
283 1 9.495 15.825 9.495 -1.77716e-14 8.33361e-15 -1.21556e-14 1.25213 1.5898 -1.34776
284 1 11.0775 17.4075 11.0775 -4.95697e-15 3.05866e-14 -4.95654e-15 0.681063 0.950486 -0.72566
285 1 12.66 15.825 9.495 1.44864e-15 8.70831e-15 -1.30282e-14 -1.19087 1.16211 1.1703
286 1 14.2425 17.4075 11.0775 -1.38778e-16 3.07688e-14 -4.10349e-15 0.576803 1.72237 -1.21004
287 1 15.825 15.825 9.495 1.00892e-14 9.70534e-15 -1.33827e-14 -1.77206 0.849821 -0.414944
288 1 17.4075 17.4075 11.0775 3.0087e-14 2.9865e-14 -3.75915e-15 -1.66934 -1.43013 0.318208
289 1 0 0 12.66 -2.92544e-14 -2.93099e-14 1.1692e-15 0.244009 0.418717 1.65338
290 1 1.5825 1.5825 14.2425 -7.59809e-15 -7.72646e-15 1.51157e-16 -0.389631 -0.909191 -1.41647
291 1 3.165 0 12.66 9.47853e-15 -2.8819e-14 7.06466e-16 -1.70694 -0.415277 1.13391
292 1 4.7475 1.5825 14.2425 -1.29546e-14 -7.66748e-15 3.83374e-16 1.82179 -0.938139 -0.987902
293 1 6.33 0 12.66 2.21246e-15 -2.91989e-14 8.87745e-16 -1.69222 -0.552551 -1.07719
294 1 7.9125 1.5825 14.2425 1.92012e-14 -8.24341e-15 7.75421e-16 -0.943128 1.50606 -0.706072
295 1 9.495 0 12.66 -1.59301e-14 -2.59237e-14 7.26415e-16 -0.689952 -0.227029 -0.245647
296 1 11.0775 1.5825 14.2425 -3.23763e-15 -8.16708e-15 4.21971e-16 -0.97016 1.6814 0.133191
297 1 12.66 0 12.66 1.31966e-15 -3.02536e-14 1.59074e-15 -0.887958 -0.540612 0.744687
298 1 14.2425 1.5825 14.2425 4.85723e-17 -7.88388e-15 5.83734e-16 1.61317 -1.22516 0.0894032
299 1 15.825 0 12.66 9.04832e-15 -2.99066e-14 1.61618e-15 1.73585 -0.717979 -1.68058
300 1 17.4075 1.5825 14.2425 3.03646e-14 -8.4481e-15 2.14968e-16 -0.980901 -0.281963 1.71492
301 1 0 3.165 12.66 -2.91989e-14 9.18363e-15 9.66241e-16 -0.883493 1.45926 -0.0747318
302 1 1.5825 4.7475 14.2425 -7.88952e-15 -1.23062e-14 3.27429e-16 -1.48173 -1.32409 1.08987
303 1 3.165 3.165 12.66 5.78704e-15 5.45007e-15 1.34398e-15 0.0961908 -0.454092 -1.9428
304 1 4.7475 4.7475 14.2425 -8.99235e-15 -9.13028e-15 5.68989e-16 -1.114 -1.26353 0.456412
305 1 6.33 3.165 12.66 3.55171e-15 7.07767e-16 1.44589e-15 1.85052 -1.0453 -0.253464
306 1 7.9125 4.7475 14.2425 2.0114e-14 -3.14332e-15 2.35922e-16 1.55767 -0.630052 -1.00592
307 1 9.495 3.165 12.66 -1.99085e-14 1.8735e-15 1.12237e-15 -0.161803 1.46677 0.440243
308 1 11.0775 4.7475 14.2425 -4.43243e-15 -4.10349e-15 4.30211e-16 1.98732 1.28174 -0.908166
309 1 12.66 3.165 12.66 9.42651e-16 7.97973e-16 1.33097e-15 -0.717067 -1.45416 -1.74862
310 1 14.2425 4.7475 14.2425 -3.60822e-16 -4.1963e-15 4.71845e-16 -0.256827 -0.787704 -0.777404
311 1 15.825 3.165 12.66 1.03043e-14 7.06019e-16 1.29497e-15 1.61945 -1.18769 0.753523
312 1 17.4075 4.7475 14.2425 3.42504e-14 -7.1102e-15 5.41234e-16 -0.0238906 -1.8229 1.44525
313 1 0 6.33 12.66 -2.91434e-14 2.26153e-15 6.62664e-16 -0.483148 1.85362 1.28478
314 1 1.5825 7.9125 14.2425 -8.02136e-15 1.92032e-14 1.2026e-15 1.2193 1.77013 -1.89644
315 1 3.165 6.33 12.66 3.81639e-16 3.7418e-15 7.58942e-16 -1.1579 -0.604365 0.572949
316 1 4.7475 7.9125 14.2425 -3.286e-15 1.96686e-14 5.06539e-16 0.459116 0.0243788 0.76559
317 1 6.33 6.33 12.66 3.86157e-15 4.06446e-15 1.04083e-15 -0.125186 0.0783494 -1.14738
318 1 7.9125 7.9125 14.2425 1.59603e-14 1.58458e-14 2.498e-16 0.325385 0.549825 1.67664
319 1 9.495 6.33 12.66 -1.99051e-14 4.31556e-15 1.28239e-15 0.969547 0.166226 -1.32312
320 1 11.0775 7.9125 14.2425 -4.92184e-15 2.01562e-14 4.92661e-16 0.917982 1.94102 1.14891
321 1 12.66 6.33 12.66 1.60212e-15 4.92184e-15 1.43288e-15 -1.74165 0.592655 -0.803786
322 1 14.2425 7.9125 14.2425 -3.81639e-16 2.06068e-14 9.57567e-16 0.539663 -1.60007 1.00097
323 1 15.825 6.33 12.66 9.24955e-15 3.6413e-15 6.70471e-16 -0.680964 0.69415 0.653349
324 1 17.4075 7.9125 14.2425 2.7478e-14 1.6054e-14 6.17562e-16 0.420999 0.550466 0.273929
325 1 0 9.495 12.66 -2.62013e-14 -1.53393e-14 5.61617e-16 -1.32136 -0.597338 0.982619
326 1 1.5825 11.0775 14.2425 -8.20871e-15 -3.40993e-15 5.88939e-16 -0.677349 0.58126 -1.59949
327 1 3.165 9.495 12.66 1.70697e-15 -1.99749e-14 8.46111e-16 -1.72006 -1.78564 -1.21066
328 1 4.7475 11.0775 14.2425 -3.89315e-15 -4.53847e-15 -1.38778e-17 0.0530532 0.919295 -1.4743
329 1 6.33 9.495 12.66 4.00924e-15 -1.94324e-14 1.16487e-15 0.272679 -0.62913 -1.74222
330 1 7.9125 11.0775 14.2425 2.01865e-14 -4.75488e-15 8.32667e-16 1.74821 -0.00569437 -1.47832
331 1 9.495 9.495 12.66 -1.53032e-14 -1.53978e-14 7.66748e-16 1.70341 1.92146 1.08697
332 1 11.0775 11.0775 14.2425 -5.03417e-15 -5.09011e-15 2.77556e-17 0.115406 1.91431 -1.43954
333 1 12.66 9.495 12.66 1.15222e-15 -2.07564e-14 6.46184e-16 0.210357 -1.10147 1.13415
334 1 14.2425 11.0775 14.2425 -1.8735e-16 -4.32293e-15 1.22732e-16 1.79749 0.487836 -1.30945
335 1 15.825 9.495 12.66 8.56953e-15 -1.99439e-14 6.87384e-16 -0.734711 -1.76473 1.22913