LAMMPS (2 Aug 2023 - Update 4)
  using 1 OpenMP thread(s) per MPI task
variable        NSTEPS          equal 100
variable        THERMO_FREQ     equal 1
variable        DUMP_FREQ       equal 1
variable        restart         equal 0
variable        TEMP            equal 300.000000
variable        PRESS           equal 1.000000
variable        TAU_T           equal 0.050000
variable        TAU_P           equal 0.500000

units           metal
boundary        p p p
atom_style      atomic

neighbor        1.0 bin
neigh_modify    delay 10

lattice bcc 3.165
Lattice spacing in x,y,z = 3.165 3.165 3.165
region box block 0 6 0 6 0 6
create_box 1 box
Created orthogonal box = (0 0 0) to (18.99 18.99 18.99)
  1 by 1 by 1 MPI processor grid
create_atoms 1 box
Created 432 atoms
  using lattice units in orthogonal box = (0 0 0) to (18.99 18.99 18.99)
  create_atoms CPU = 0.001 seconds

mass   1    183.84
pair_style   nep
pair_coeff       * * ../../nep.txt W

compute    allPe   all   pe
compute    myVirial all pressure NULL virial
variable   N_total equal count(all)
variable   pe_peratom equal c_allPe/v_N_total
variable   W_xx  equal c_myVirial[1]/v_N_total
variable   W_yy  equal c_myVirial[2]/v_N_total
variable   W_zz  equal c_myVirial[3]/v_N_total
variable   W_xy  equal c_myVirial[4]/v_N_total
variable   W_xz  equal c_myVirial[5]/v_N_total
variable   W_yz  equal c_myVirial[6]/v_N_total

thermo_style    custom step temp v_pe_peratom v_W_xx v_W_yy v_W_zz v_W_xy v_W_xz v_W_yz
thermo          ${THERMO_FREQ}
thermo          1

if "${restart} == 0" then "velocity        all create ${TEMP} 35826"
velocity        all create ${TEMP} 35826
velocity        all create 300 35826
fix             1 all npt temp ${TEMP} ${TEMP} ${TAU_T} iso ${PRESS} ${PRESS} ${TAU_P}
fix             1 all npt temp 300 ${TEMP} ${TAU_T} iso ${PRESS} ${PRESS} ${TAU_P}
fix             1 all npt temp 300 300 ${TAU_T} iso ${PRESS} ${PRESS} ${TAU_P}
fix             1 all npt temp 300 300 0.05 iso ${PRESS} ${PRESS} ${TAU_P}
fix             1 all npt temp 300 300 0.05 iso 1 ${PRESS} ${TAU_P}
fix             1 all npt temp 300 300 0.05 iso 1 1 ${TAU_P}
fix             1 all npt temp 300 300 0.05 iso 1 1 0.5
timestep        0.001000
#run             ${NSTEPS}
dump            1 all custom ${DUMP_FREQ} lammps.dump id type x y z fx fy fz vx vy vz
dump            1 all custom 1 lammps.dump id type x y z fx fy fz vx vy vz
dump_modify     1 sort id

run             ${NSTEPS}
run             100
Neighbor list info ...
  update: every = 1 steps, delay = 10 steps, check = yes
  max neighbors/atom: 2000, page size: 100000
  master list distance cutoff = 7
  ghost atom cutoff = 7
  binsize = 3.5, bins = 6 6 6
  1 neighbor lists, perpetual/occasional/extra = 1 0 0
  (1) pair nep, perpetual
      attributes: full, newton on
      pair build: full/bin/atomonly
      stencil: full/bin/3d
      bin: standard
Per MPI rank memory allocation (min/avg/max) = 3.141 | 3.141 | 3.141 Mbytes
   Step          Temp       v_pe_peratom      v_W_xx         v_W_yy         v_W_zz         v_W_xy         v_W_xz         v_W_yz    
         0   300           -13.435769     -111.49174     -111.49174     -111.49174      3.4091413e-14  3.2347761e-14  3.1235431e-14
         1   299.77404     -13.435786     -110.72538     -110.72546     -110.72515     -0.00040204015 -0.0005659427   0.00039158873
         2   299.09616     -13.435837     -108.43518     -108.4355      -108.43423     -0.0016138626  -0.0022776572   0.0015759359 
         3   297.96644     -13.435912     -104.64783     -104.64855     -104.64568     -0.003645008   -0.0051594901   0.0035661173 
         4   296.3852      -13.435998     -99.407941     -99.409191     -99.404038     -0.0065062242  -0.0092399772   0.0063733672 
         5   294.35312     -13.436079     -92.778106     -92.78002      -92.771896     -0.01020921    -0.014550932    0.010006878  
         6   291.8715      -13.436134     -84.839033     -84.841729     -84.829929     -0.014766215   -0.021126198    0.014473535  
         7   288.94251     -13.43614      -75.689523     -75.693105     -75.676908     -0.020189493   -0.029000087    0.019777604  
         8   285.56948     -13.436075     -65.446282     -65.450843     -65.429516     -0.026490617   -0.038205542    0.025920378  
         9   281.75724     -13.435917     -54.243478     -54.2491       -54.221901     -0.033679664   -0.04877207     0.032899803  
        10   277.51252     -13.435646     -42.231949     -42.238706     -42.204884     -0.041764292   -0.060723501    0.040710108  
        11   272.84423     -13.435246     -29.577989     -29.585951     -29.544752     -0.050748741   -0.074075664    0.049341452  
        12   267.76391     -13.434704     -16.461672     -16.470909     -16.421582     -0.060632781   -0.088834065    0.058779607  
        13   262.28595     -13.434015     -3.0746652     -3.0852535     -3.0270559     -0.071410675   -0.10499166     0.069005709  
        14   256.42791     -13.433179      10.382452      10.370422      10.438221     -0.083070187   -0.12252684     0.079996063  
        15   250.21071     -13.432202      23.703343      23.689761      23.767871     -0.095591698   -0.14140174     0.091722051  
        16   243.65873     -13.431097      36.679475      36.664197      36.753301     -0.10894749    -0.16156095     0.10415011   
        17   236.79985     -13.429883      49.103983      49.086827      49.18757      -0.12310123    -0.18293077     0.11724183   
        18   229.66533     -13.428582      60.77574       60.756473      60.86946      -0.13800772    -0.20541897     0.13095407   
        19   222.28961     -13.42722       71.503483      71.481813      71.607598     -0.15361292    -0.22891527     0.14523925   
        20   214.71004     -13.425826      81.109868      81.08544       81.224517     -0.1698543     -0.25329242     0.16004562   
        21   206.96641     -13.42443       89.43532       89.407701      89.560502     -0.18666143    -0.27840786     0.17531769   
        22   199.10044     -13.423058      96.341535      96.310217      96.477102     -0.20395694    -0.30410608     0.19099662   
        23   191.15523     -13.421738      101.71454      101.67894      101.86019     -0.22165772    -0.33022142     0.20702073   
        24   183.17456     -13.42049       105.46723      105.42667      105.6225      -0.23967631    -0.3565813      0.22332606   
        25   175.2022      -13.419332      107.54122      107.49496      107.70549     -0.25792253    -0.38300982     0.23984693   
        26   167.28124     -13.418275      107.90814      107.85537      108.08062     -0.27630518    -0.40933143     0.25651665   
        27   159.45336     -13.417324      106.5701       106.50995      106.74989     -0.29473383    -0.43537475     0.27326816   
        28   151.75821     -13.416479      103.55957      103.49111      103.74561     -0.31312062    -0.46097616     0.2900348    
        29   144.23285     -13.415733      98.938424      98.860704      99.129546     -0.33138194    -0.48598318     0.30675105   
        30   136.91127     -13.415074      92.796423      92.70847       92.991364     -0.34944003    -0.51025753     0.32335331   
        31   129.82406     -13.414487      85.248968      85.149811      85.446392     -0.3672244     -0.53367753     0.33978068   
        32   122.99826     -13.413954      76.434342      76.323021      76.632858     -0.38467294    -0.5561401      0.35597565   
        33   116.45733     -13.413455      66.510436      66.386024      66.708625     -0.40173287    -0.57756201     0.37188476   
        34   110.22124     -13.412969      55.65111       55.512725      55.847545     -0.4183613     -0.59788048     0.38745915   
        35   104.30683     -13.412477      44.042284      43.889102      44.235549     -0.43452549    -0.61705319     0.40265504   
        36   98.72806      -13.411965      31.877896      31.709159      32.066608     -0.45020291    -0.63505757     0.41743401   
        37   93.496465     -13.411419      19.355864      19.170893      19.538688     -0.4653808     -0.65188961     0.43176321   
        38   88.621495     -13.410831      6.674185       6.4723788      6.8498433     -0.48005568    -0.66756215     0.44561537   
        39   84.110815     -13.410199     -5.972721      -6.1918816     -5.8054358     -0.49423243    -0.68210273     0.4589687    
        40   79.970516     -13.409525     -18.397303     -18.634257     -18.239524     -0.50792325    -0.69555115     0.47180664   
        41   76.205226     -13.408816     -30.421742     -30.676851     -30.274525     -0.52114646    -0.70795685     0.48411743   
        42   72.818159     -13.408084     -41.880328     -42.153883     -41.744651     -0.53392508    -0.71937604     0.49589361   
        43   69.811142     -13.407345     -52.621342     -52.913569     -52.49811      -0.5462854     -0.72986886     0.50713137   
        44   67.184637     -13.406617     -62.508443     -62.819514     -62.398494     -0.55825545    -0.7394966      0.51782982   
        45   64.937818     -13.40592      -71.421606     -71.751645     -71.325715     -0.56986351    -0.748319       0.52799015   
        46   63.068683     -13.405275     -79.257662     -79.606756     -79.176554     -0.5811366     -0.75639178     0.53761483   
        47   61.574207     -13.4047       -85.930513     -86.298717     -85.864868     -0.59209908    -0.76376439     0.54670669   
        48   60.450521     -13.404215     -91.371094     -91.758445     -91.321561     -0.6027713     -0.77047816     0.55526812   
        49   59.693092     -13.403834     -95.527171     -95.933687     -95.494372     -0.61316844    -0.77656469     0.56330022   
        50   59.296876     -13.40357      -98.363025     -98.788716     -98.34757      -0.62329935    -0.78204467     0.57080206   
        51   59.25645      -13.403429     -99.859102     -100.30397     -99.861591     -0.63316565    -0.78692706     0.57776996   
        52   59.566084     -13.403415     -100.01166     -100.47571     -100.0327      -0.64276088    -0.79120867     0.58419696   
        53   60.219777     -13.403526     -98.832448     -99.315686     -98.872635     -0.65206981    -0.79487408     0.59007226   
        54   61.21124      -13.403757     -96.348427     -96.850847     -96.408376     -0.66106793    -0.797896       0.59538093   
        55   62.533825     -13.404097     -92.601518     -93.123116     -92.681851     -0.66972108    -0.80023597     0.60010363   
        56   64.180427     -13.404533     -87.64837      -88.189135     -87.749714     -0.67798528    -0.80184543     0.60421656   
        57   66.143345     -13.405047     -81.560102     -82.12001      -81.683086     -0.68580677    -0.80266717     0.60769155   
        58   68.414124     -13.405621     -74.421967     -75.000976     -74.56722      -0.69312226    -0.80263703     0.61049632   
        59   70.983381     -13.406236     -66.332907     -66.93095      -66.501043     -0.69985948    -0.80168601     0.61259492   
        60   73.840628     -13.40687      -57.404917     -58.021894     -57.59653      -0.70593796    -0.79974249     0.61394835   
        61   76.974107     -13.407507     -47.762191     -48.397959     -47.977838     -0.71127012    -0.79673479     0.61451537   
        62   80.370631     -13.408127     -37.539991     -38.194354     -37.780178     -0.71576267    -0.7925937      0.61425344   
        63   84.015462     -13.408718     -26.883212     -27.555912     -27.148377     -0.71931826    -0.7872552      0.61311984   
        64   87.892207     -13.409267     -15.944638     -16.635346     -16.235131     -0.72183737    -0.780663       0.61107294   
        65   91.982769     -13.409767     -4.8828748     -5.5911781     -5.1989442     -0.72322051    -0.77277107     0.60807346   
        66   96.267327     -13.410215      6.1399926      5.4145987      5.7982262     -0.72337043    -0.76354585     0.60408587   
        67   100.72437     -13.410612      16.960995      16.219116      16.593553     -0.72219457    -0.75296819     0.59907981   
        68   105.33081     -13.410962      27.419044      26.661395      27.026111     -0.71960735    -0.74103495     0.59303139   
        69   110.06206     -13.411272      37.35781       36.58522       36.939745     -0.71553256    -0.72776002     0.58592452   
        70   114.89228     -13.411552      46.628605      45.842027      46.185961     -0.70990546    -0.713175       0.57775203   
        71   119.79461     -13.411814      55.093208      54.293716      54.626736     -0.7026747     -0.69732926     0.56851668   
        72   124.74142     -13.41207       62.626515      61.81531       62.137177     -0.6938039     -0.68028953     0.55823194   
        73   129.70463     -13.412334      69.118957      68.297363      68.607922     -0.6832729     -0.66213893     0.54692254   
        74   134.65609     -13.412615      74.478596      73.648058      73.947245     -0.67107855    -0.64297562     0.53462477   
        75   139.56792     -13.412924      78.632852      77.794925      78.082764     -0.65723516    -0.62291096     0.52138647   
        76   144.41285     -13.413268      81.529797      80.686144      80.962744     -0.64177433    -0.60206735     0.50726678   
        77   149.16466     -13.413652      83.13901       82.291382      82.556935     -0.62474455    -0.58057586     0.49233551   
        78   153.79846     -13.414076      83.451948      82.602174      82.856949     -0.60621021    -0.55857361     0.47667236   
        79   158.29105     -13.414538      82.481852      81.631816      81.876154     -0.58625029    -0.53620118     0.4603658    
        80   162.6212      -13.415032      80.263184      79.414811      79.649115     -0.56495672    -0.51359995     0.44351169   
        81   166.76989     -13.41555       76.850623      76.005854      76.230581     -0.54243243    -0.49090961     0.42621188   
        82   170.72052     -13.416082      72.317651      71.478422      71.694078     -0.51878914    -0.46826586     0.40857249   
        83   174.45903     -13.416614      66.754779      65.922999      66.130125     -0.4941451     -0.44579834     0.39070227   
        84   177.97398     -13.417133      60.267451      59.444979      59.644149     -0.46862266    -0.4236289      0.37271086   
        85   181.25661     -13.417625      52.97371       52.162335      52.354142     -0.44234591    -0.40187018     0.35470716   
        86   184.30075     -13.418076      45.001673      44.203094      44.388146     -0.41543834    -0.3806246      0.33679771   
        87   187.10279     -13.418475      36.486898      35.70271       35.881625     -0.38802077    -0.35998369     0.31908535   
        88   189.66153     -13.41881       27.569724      26.8014        26.974797     -0.36020935    -0.34002777     0.30166795   
        89   191.978       -13.419074      18.392635      17.64152       17.810018     -0.33211399    -0.32082598     0.28463738   
        90   194.05532     -13.419262      9.0977391      8.3650428      8.5292525     -0.30383703    -0.30243654     0.26807881   
        91   195.89843     -13.419372     -0.17558795    -0.88879568    -0.7282709     -0.27547224    -0.28490738     0.25207006   
        92   197.5139      -13.419403     -9.2928472     -9.9856344     -9.8282036     -0.24710426    -0.26827683     0.23668134   
        93   198.90968     -13.419361     -18.126306     -18.797875     -18.642961     -0.21880832    -0.25257458     0.22197511   
        94   200.09491     -13.419252     -26.556616     -27.206296     -27.053337     -0.19065034    -0.23782267     0.20800613   
        95   201.07967     -13.419083     -34.474139     -35.101379     -34.94983      -0.16268734    -0.22403654     0.19482167   
        96   201.87479     -13.418866     -41.780007     -42.384359     -42.233693     -0.13496806    -0.21122616     0.18246182   
        97   202.49172     -13.418612     -48.3869       -48.968013     -48.817722     -0.10753394    -0.19939708     0.17095996   
        98   202.94233     -13.418331     -54.219603     -54.777205     -54.626798     -0.080420143   -0.18855141     0.16034316   
        99   203.2388      -13.418037     -59.215338     -59.749221     -59.598232     -0.053656788   -0.17868874     0.15063277   
       100   203.39352     -13.417739     -63.323934     -63.833942     -63.681923     -0.027270294   -0.16980693     0.14184486   
Loop time of 3.97268 on 1 procs for 100 steps with 432 atoms

Performance: 2.175 ns/day, 11.035 hours/ns, 25.172 timesteps/s, 10.874 katom-step/s
99.2% CPU use with 1 MPI tasks x 1 OpenMP threads

MPI task timing breakdown:
Section |  min time  |  avg time  |  max time  |%varavg| %total
---------------------------------------------------------------
Pair    | 3.8116     | 3.8116     | 3.8116     |   0.0 | 95.95
Neigh   | 0          | 0          | 0          |   0.0 |  0.00
Comm    | 0.0011513  | 0.0011513  | 0.0011513  |   0.0 |  0.03
Output  | 0.15696    | 0.15696    | 0.15696    |   0.0 |  3.95
Modify  | 0.0022566  | 0.0022566  | 0.0022566  |   0.0 |  0.06
Other   |            | 0.0006911  |            |       |  0.02

Nlocal:            432 ave         432 max         432 min
Histogram: 1 0 0 0 0 0 0 0 0 0
Nghost:           1899 ave        1899 max        1899 min
Histogram: 1 0 0 0 0 0 0 0 0 0
Neighs:              0 ave           0 max           0 min
Histogram: 1 0 0 0 0 0 0 0 0 0
FullNghs:        38016 ave       38016 max       38016 min
Histogram: 1 0 0 0 0 0 0 0 0 0

Total # of neighbors = 38016
Ave neighs/atom = 88
Neighbor list builds = 0
Dangerous builds = 0
Total wall time: 0:00:05
