ITEM: TIMESTEP
0
ITEM: NUMBER OF ATOMS
250
ITEM: BOX BOUNDS pp pp pp
0.0000000000000000e+00 1.5800000000000001e+01
0.0000000000000000e+00 1.5800000000000001e+01
0.0000000000000000e+00 1.5800000000000001e+01
ITEM: ATOMS id type x y z fx fy fz vx vy vz
1 1 0 0 0 0.213508 -0.259898 -0.534837 0.746609 1.68483 -1.27172
2 2 1.58 1.58 1.58 0.00619834 -0.386795 0.254722 -0.767575 1.36712 -1.11995
3 1 0 0 3.16 0.612767 -0.628684 -0.0470687 -0.0920956 -0.0984503 -0.901699
4 3 1.58 1.58 4.74 0.124201 -0.96793 -0.703947 -0.467536 -0.377218 0.466802
5 1 0 0 6.32 -0.13185 -0.362777 0.0898133 -0.00845152 0.274146 1.12415
6 3 1.58 1.58 7.9 -0.049301 -0.685203 0.704575 -1.59571 -1.6448 0.0425658
7 4 0 0 9.48 -0.4944 -0.0585714 0.400792 -0.455338 1.4953 -1.78912
8 2 1.58 1.58 11.06 -0.27788 -0.377497 -0.306138 -0.360222 1.25285 2.75633
9 2 0 0 12.64 0.0148785 -0.105681 -0.0740386 -1.01464 -0.825411 2.97137
10 2 1.58 1.58 14.22 -0.498616 -0.684086 -0.0253419 0.522221 0.0436687 4.05988
11 2 0 3.16 0 0.145697 -0.303098 -0.0934017 2.3913 -2.76493 1.88641
12 3 1.58 4.74 1.58 -0.704792 -0.0060701 -0.0911919 -0.933871 0.0966906 -1.3198
13 4 0 3.16 3.16 -0.425703 0.222765 -0.121637 0.379139 -1.47577 1.08984
14 3 1.58 4.74 4.74 -0.144271 0.0779164 -0.798769 -1.04519 -0.183635 0.483658
15 3 0 3.16 6.32 -1.36179 0.202489 0.412391 -0.679252 2.65542 -1.12426
16 3 1.58 4.74 7.9 -0.0684828 0.217779 1.22368 0.257767 -0.221678 -1.4059
17 1 0 3.16 9.48 -0.557473 0.212458 0.201235 -0.757335 -0.842978 -0.949402
18 1 1.58 4.74 11.06 0.0404911 0.117654 -0.406437 0.249419 0.740259 1.81729
19 2 0 3.16 12.64 0.0221118 -0.275167 -0.149674 -2.45842 -1.15451 2.75653
20 1 1.58 4.74 14.22 0.00554138 0.431542 -0.029677 -1.35957 2.26215 0.0604823
21 2 0 6.32 0 -0.266228 0.56118 -0.0369695 -1.4839 1.06105 -1.20053
22 2 1.58 7.9 1.58 -0.363225 0.0939019 -0.310341 -2.70997 0.338255 2.27944
23 2 0 6.32 3.16 -0.401184 0.392737 -0.0575907 -1.28146 -2.2688 1.49776
24 4 1.58 7.9 4.74 -0.0478903 0.0871245 -0.0330538 -2.95407 -0.333518 -2.54827
25 3 0 6.32 6.32 -1.23559 0.5099 0.149843 0.0671374 -0.376616 -0.895413
26 3 1.58 7.9 7.9 0.150672 -0.151975 0.455576 2.62011 -0.630939 0.200861
27 4 0 6.32 9.48 -0.773532 -0.300068 0.200064 -0.386825 0.255241 1.50845
28 3 1.58 7.9 11.06 0.390268 -0.0554649 -0.289094 1.07601 0.314964 0.54429
29 3 0 6.32 12.64 -0.247188 0.107866 -0.393456 -1.04659 -0.455283 -1.09894
30 1 1.58 7.9 14.22 0.423683 -0.0454723 0.0604591 -2.04386 1.12831 -0.875724
31 2 0 9.48 0 0.0378363 0.0841286 0.165661 0.0636305 -0.803041 1.02728
32 2 1.58 11.06 1.58 -0.256441 -0.235522 -0.122042 1.57925 2.09553 -1.77095
33 4 0 9.48 3.16 -0.0833829 0.0285424 0.2035 0.772692 1.57523 -0.662199
34 1 1.58 11.06 4.74 0.570871 0.00408593 -0.306931 0.509035 -0.0819696 1.1096
35 3 0 9.48 6.32 -0.399772 0.249336 -0.33675 -1.18972 -1.21856 0.453376
36 2 1.58 11.06 7.9 0.0830946 -0.237626 0.432778 1.91762 0.130914 1.51323
37 1 0 9.48 9.48 -0.570778 0.345386 -0.0257041 0.822576 0.259025 -0.318227
38 4 1.58 11.06 11.06 -0.24337 -0.116446 -0.153479 0.662391 1.72568 2.42632
39 3 0 9.48 12.64 -0.541586 0.364432 0.237642 2.25406 0.0741306 1.99333
40 1 1.58 11.06 14.22 -0.344537 -0.23502 -0.128111 -0.376025 -0.383253 -1.09758
41 2 0 12.64 0 -0.231296 0.00264631 -0.265235 1.58313 -1.5571 1.56022
42 1 1.58 14.22 1.58 0.501678 0.522465 0.0932289 2.66795 -0.964055 -0.708744
43 3 0 12.64 3.16 0.316051 -0.230176 -0.0370665 -0.252408 -0.56106 -1.2389
44 4 1.58 14.22 4.74 0.491085 0.615564 -0.137318 2.62316 -4.57074 0.47669
45 3 0 12.64 6.32 -0.73269 -0.344932 -0.186255 -0.311646 0.96664 -0.812583
46 3 1.58 14.22 7.9 -0.0084255 1.01851 0.102509 -0.328579 0.439836 0.905686
47 1 0 12.64 9.48 -0.284087 -0.0366056 0.483287 0.85363 -3.02995 -1.92063
48 4 1.58 14.22 11.06 -0.482866 0.344246 0.10353 0.968042 4.42063 1.97331
49 1 0 12.64 12.64 0.0434861 0.159275 -0.140625 -0.696088 1.25363 0.267709
50 4 1.58 14.22 14.22 -0.335736 0.414378 -0.118646 0.919719 -0.371544 1.96798
51 4 3.16 0 0 -0.160607 0.117419 0.159813 -2.14664 0.889027 2.2182
52 4 4.74 1.58 1.58 0.0202858 -0.344356 -0.103356 0.364774 3.78383 -0.481196
53 4 3.16 0 3.16 0.224313 -0.341987 -0.239144 -2.27614 -1.85443 0.404703
54 2 4.74 1.58 4.74 -0.486275 -0.82245 -0.408299 1.30826 3.16613 0.330757
55 4 3.16 0 6.32 0.23364 -0.3629 -0.591627 -2.93507 0.733929 2.14321
56 3 4.74 1.58 7.9 0.0479399 -0.587013 0.748097 -0.946344 0.234049 -0.740733
57 2 3.16 0 9.48 -0.513537 -0.118203 0.2236 3.27209 -0.215305 1.36424
58 3 4.74 1.58 11.06 0.209277 -0.105806 -0.413921 0.792182 1.22883 -0.00707237
59 4 3.16 0 12.64 -0.515375 -0.11955 0.451732 2.83009 0.113182 -2.62491
60 1 4.74 1.58 14.22 0.539772 -0.443961 0.415388 -1.03881 -0.0345732 -0.476118
61 3 3.16 3.16 0 0.891265 -0.665708 -0.0731543 2.50215 0.490505 -0.844888
62 4 4.74 4.74 1.58 0.328694 0.2123 -0.0820091 1.25796 -0.533083 4.014
63 2 3.16 3.16 3.16 0.623982 -0.295423 -0.384051 -0.356181 -1.92536 -1.04752
64 1 4.74 4.74 4.74 0.334878 0.801546 -0.114332 0.463248 -0.261385 0.344327
65 3 3.16 3.16 6.32 0.858922 0.0314826 -0.0282769 -0.137345 -0.398359 1.22465
66 2 4.74 4.74 7.9 0.172458 0.449581 0.429233 -0.49462 1.597 -0.702214
67 4 3.16 3.16 9.48 -0.0224228 0.492632 0.340543 1.80285 -1.36691 1.75383
68 1 4.74 4.74 11.06 0.438348 0.13309 -0.082695 -2.6112 0.213527 0.551266
69 3 3.16 3.16 12.64 -0.333228 0.23687 0.0527537 -1.50056 2.06443 -0.699571
70 2 4.74 4.74 14.22 0.612302 0.467298 0.0971065 0.364358 -2.07085 -3.47243
71 2 3.16 6.32 0 -0.0313152 0.0597957 0.0530291 -0.327488 2.68844 -0.580996
72 4 4.74 7.9 1.58 0.537557 -0.157243 -0.299537 2.85516 2.79378 -0.857965
73 3 3.16 6.32 3.16 0.730372 0.381235 -0.387906 -0.875234 -0.818487 2.19719
74 3 4.74 7.9 4.74 0.828464 0.00658296 0.360349 0.440864 0.10831 1.3654
75 1 3.16 6.32 6.32 0.485532 0.236364 -0.0186305 -0.880169 0.123256 2.84161
76 2 4.74 7.9 7.9 0.310513 -0.00882904 -0.0238744 -1.2766 0.344892 -0.536865
77 1 3.16 6.32 9.48 0.234482 -0.461677 -0.0489616 0.930701 1.16841 1.42324
78 3 4.74 7.9 11.06 0.199418 -0.0863148 0.177601 2.20248 -0.301151 -1.72195
79 4 3.16 6.32 12.64 -0.311474 -0.603608 0.110667 1.75764 -2.26376 -3.84092
80 3 4.74 7.9 14.22 -0.108563 -0.181726 0.090561 -0.914584 1.98919 -0.370072
81 1 3.16 9.48 0 -0.229043 -0.118439 0.449881 -0.603789 1.79844 -0.290314
82 2 4.74 11.06 1.58 0.272793 -0.459342 -0.017566 -3.33569 -0.856647 0.556078
83 3 3.16 9.48 3.16 -0.312061 0.469524 -0.115565 0.73004 0.261569 -0.324993
84 4 4.74 11.06 4.74 0.0269658 -0.0706721 0.516012 -1.08664 1.73309 1.22473
85 1 3.16 9.48 6.32 0.183129 0.322756 -0.331881 -1.52928 -2.44054 0.243887
86 1 4.74 11.06 7.9 0.693584 -0.499033 -0.311352 1.68757 2.43165 -0.562679
87 1 3.16 9.48 9.48 0.0793755 0.635641 0.028925 -0.265268 -0.249793 2.2564
88 1 4.74 11.06 11.06 0.0255274 -0.891885 -0.410594 0.664835 -1.22006 -1.41537
89 4 3.16 9.48 12.64 -0.521605 0.507549 -0.0301966 -1.03005 0.478486 -0.592448
90 3 4.74 11.06 14.22 0.197042 -1.05093 0.0960274 -1.37629 1.7892 1.67412
91 3 3.16 12.64 0 -0.620692 0.337274 0.873923 1.79332 -1.85647 -1.31885
92 2 4.74 14.22 1.58 -0.297821 0.806028 0.116646 -3.02433 -1.0585 -0.315616
93 4 3.16 12.64 3.16 -0.20216 0.189533 0.288481 0.296219 1.35043 0.33138
94 1 4.74 14.22 4.74 -0.697515 0.221729 0.1136 -1.08191 1.52977 -1.18073
95 2 3.16 12.64 6.32 0.303146 -0.179693 -0.706277 -1.47199 1.43603 0.361575
96 2 4.74 14.22 7.9 0.189771 0.225159 -0.359307 -1.38029 -2.87771 -0.893335
97 3 3.16 12.64 9.48 -0.386146 -0.685508 0.236934 -0.357547 -0.743161 -1.5638
98 3 4.74 14.22 11.06 -0.191407 1.03981 -0.270098 -0.0687141 -1.93994 2.17463
99 3 3.16 12.64 12.64 -1.54754 -0.0847096 -0.431059 0.119698 -1.63005 0.694875
100 3 4.74 14.22 14.22 -0.19767 1.31868 0.319798 -2.07023 -0.815248 -1.09061
101 2 6.32 0 0 0.0564329 0.691167 0.351617 -1.74978 1.61306 0.795808
102 4 7.9 1.58 1.58 -0.224654 0.0822586 -0.387981 -2.5816 -1.3969 -2.89989
103 1 6.32 0 3.16 -0.249151 0.322242 -0.243287 1.30484 -1.89378 0.0601319
104 1 7.9 1.58 4.74 0.0628088 -0.13735 -0.0235826 -0.18589 -0.651068 0.597816
105 1 6.32 0 6.32 -0.0208737 0.0640852 -0.344148 -1.11482 0.895402 -1.88393
106 4 7.9 1.58 7.9 0.0468379 0.223568 0.481102 -2.96811 -1.79468 -1.78024
107 2 6.32 0 9.48 0.313688 0.547072 -0.301134 -1.61524 -2.88907 0.080625
108 1 7.9 1.58 11.06 0.123915 0.386276 -0.260064 0.358242 0.586054 0.762712
109 1 6.32 0 12.64 0.396268 0.6736 0.718993 0.0351442 2.42939 -1.40974
110 4 7.9 1.58 14.22 -0.400399 -0.212902 0.122898 1.9235 0.534219 1.7845
111 4 6.32 3.16 0 -0.296118 -0.495427 0.146643 3.1917 2.99495 -0.103864
112 2 7.9 4.74 1.58 -0.0300173 0.334275 -0.340407 0.40216 -1.23221 0.0910244
113 3 6.32 3.16 3.16 -0.331028 -0.221021 -1.15227 -0.00652209 1.4645 -1.01071
114 3 7.9 4.74 4.74 0.278413 0.883766 0.036942 2.00863 0.543567 0.705398
115 3 6.32 3.16 6.32 0.176592 0.0880481 0.425159 -0.0731996 1.40489 -1.41759
116 1 7.9 4.74 7.9 -0.0505007 -0.124242 0.30962 -0.59151 -1.31991 -1.55833
117 4 6.32 3.16 9.48 0.573777 0.506638 0.172998 -0.262666 -0.594706 -0.194571
118 4 7.9 4.74 11.06 -0.641506 -0.237761 0.0227707 -0.659621 0.332118 0.75948
119 1 6.32 3.16 12.64 0.384625 0.0891205 0.0340072 0.0437792 -0.898023 -0.792757
120 3 7.9 4.74 14.22 -0.451086 0.281176 0.162413 -1.47094 0.243216 -1.38304
121 2 6.32 6.32 0 -0.114998 -0.355913 0.852999 -0.124124 -1.52324 0.192389
122 4 7.9 7.9 1.58 -0.0283934 0.00633129 0.0330186 -0.3648 2.81052 -0.750583
123 4 6.32 6.32 3.16 -0.505978 -0.0203299 -0.546759 3.75678 -2.75927 -2.10393
124 3 7.9 7.9 4.74 -0.320431 0.257412 -0.166765 -1.88361 -0.0939442 -0.693475
125 4 6.32 6.32 6.32 -0.18802 -0.227845 0.415538 -2.31854 0.340177 0.134652
126 1 7.9 7.9 7.9 -0.672677 0.388558 -0.228903 0.0593647 2.20678 -0.55053
127 2 6.32 6.32 9.48 0.278402 -0.401313 -0.208378 -1.76725 0.672263 -0.00069154
128 1 7.9 7.9 11.06 -0.475327 -0.0192385 0.0823242 0.84858 -1.09799 0.500984
129 4 6.32 6.32 12.64 0.0480915 -0.683626 -0.62858 0.680216 -0.124867 -1.10792
130 3 7.9 7.9 14.22 -0.0875144 -0.306743 0.369036 -2.994 1.33758 -1.85961
131 2 6.32 9.48 0 0.179847 0.149993 1.01361 -3.01274 -1.81683 -0.533378
132 2 7.9 11.06 1.58 0.0173807 -0.717576 -0.379918 -0.890572 -3.21897 -1.20562
133 1 6.32 9.48 3.16 0.0425392 0.148598 -0.14172 0.813183 -0.625776 0.421182
134 4 7.9 11.06 4.74 0.106452 -0.456481 0.46005 5.06661 0.186165 -4.59425
135 4 6.32 9.48 6.32 -0.0624036 0.507745 0.341546 1.88162 -0.919901 2.3102
136 1 7.9 11.06 7.9 0.0275756 -0.265409 -0.291165 0.657764 -0.898503 -1.22657
137 4 6.32 9.48 9.48 0.0210042 0.132534 -0.544918 -1.76936 -1.34149 0.343037
138 3 7.9 11.06 11.06 0.340877 -0.586795 -0.372225 0.572341 0.467428 0.175866
139 2 6.32 9.48 12.64 0.101868 0.0502234 -0.383514 -0.118341 -1.30077 0.738619
140 1 7.9 11.06 14.22 0.143099 -0.203261 0.30704 -0.261346 -1.33714 0.69913
141 1 6.32 12.64 0 0.481214 -0.0773862 0.473637 0.145847 -1.08204 0.439494
142 1 7.9 14.22 1.58 -0.0615588 0.386937 -0.679049 -0.208398 0.248594 0.690417
143 3 6.32 12.64 3.16 -0.326157 -0.283817 0.177531 -0.983444 1.27886 1.25893
144 1 7.9 14.22 4.74 -0.222258 -0.267613 0.516078 -2.60482 0.145734 0.663171
145 2 6.32 12.64 6.32 -0.0215165 -0.599555 -0.490461 0.517589 -0.31852 -0.531341
146 3 7.9 14.22 7.9 -0.10348 -0.212697 0.149455 0.551639 -0.993 1.77132
147 1 6.32 12.64 9.48 -0.257607 -0.73163 -0.390302 -1.43225 0.215544 -0.648792
148 3 7.9 14.22 11.06 0.364793 0.401672 -0.227451 0.967296 -0.00558855 0.090313
149 3 6.32 12.64 12.64 0.243278 -0.0685065 0.41933 2.10993 1.17073 -0.39338
150 2 7.9 14.22 14.22 0.396131 0.540092 0.207206 -0.722184 1.30445 2.15806
151 2 9.48 0 0 0.171689 -0.0451188 -0.136038 1.78901 0.598971 0.8284
152 2 11.06 1.58 1.58 -0.520118 -0.196934 -0.577999 -2.24559 0.558188 -0.90686
153 3 9.48 0 3.16 -0.328165 0.429973 -0.692782 1.54676 0.797279 2.12662
154 2 11.06 1.58 4.74 0.107611 0.604294 0.596342 0.370504 -0.867575 0.611207
155 3 9.48 0 6.32 -0.164775 0.493883 0.0944247 -0.886526 1.52919 -0.940639
156 1 11.06 1.58 7.9 -0.0778432 0.369347 0.273163 2.21122 -1.4474 -0.908153
157 2 9.48 0 9.48 0.648423 0.776543 0.217573 1.84233 -2.46046 -1.79031
158 4 11.06 1.58 11.06 -0.201819 -0.670626 -0.0976975 2.08998 1.56051 -2.55902
159 2 9.48 0 12.64 0.410957 0.352069 0.33154 1.02895 -0.205288 0.131706
160 1 11.06 1.58 14.22 -0.0841253 -0.98802 -0.0118445 0.776016 0.700124 0.176103
161 2 9.48 3.16 0 -0.403572 -0.416918 0.0878489 2.73136 1.0104 0.162886
162 3 11.06 4.74 1.58 -0.43869 1.28968 -0.306535 0.751068 2.13302 1.2614
163 1 9.48 3.16 3.16 -0.191516 -0.581014 -0.0361095 0.147482 -0.0364931 -0.0374703
164 1 11.06 4.74 4.74 0.183638 0.251496 0.572527 4.24936 -0.135911 1.68073
165 1 9.48 3.16 6.32 0.267499 -0.361887 0.495331 0.665613 0.444433 0.817971
166 1 11.06 4.74 7.9 0.244693 -0.16634 -0.687639 -0.165571 -0.211767 -2.7966
167 4 9.48 3.16 9.48 -0.207768 -0.175306 -0.145693 -2.80518 0.942425 -1.80765
168 2 11.06 4.74 11.06 -0.348231 0.114113 -0.227209 -1.57783 -1.53917 0.118592
169 3 9.48 3.16 12.64 -0.0122705 -0.451882 -0.709325 1.42997 -2.03499 0.71758
170 1 11.06 4.74 14.22 -0.326641 0.47838 0.807077 -0.741891 0.804913 -1.76886
171 4 9.48 6.32 0 0.473122 0.147012 0.18578 -2.35179 0.135719 -0.584576
172 4 11.06 7.9 1.58 -0.27696 -0.262587 0.208561 -5.97535 -1.20826 -0.112774
173 2 9.48 6.32 3.16 -0.171751 0.156748 -0.79643 2.23807 -0.802585 -0.970892
174 3 11.06 7.9 4.74 0.304546 0.255703 -0.257796 -0.121184 -0.587805 -1.32833
175 2 9.48 6.32 6.32 0.294574 -0.230968 0.680272 -3.58843 0.47462 -2.04743
176 2 11.06 7.9 7.9 0.291182 0.319826 -0.327011 -0.0461383 3.04625 2.95129
177 3 9.48 6.32 9.48 -0.0114154 -0.354943 0.233597 -0.596185 -1.17284 0.458233
178 2 11.06 7.9 11.06 0.188288 0.668245 -0.00150974 -0.473146 -1.09212 1.08737
179 2 9.48 6.32 12.64 0.364053 -0.0534104 -0.30303 0.747973 -0.986438 -0.125256
180 2 11.06 7.9 14.22 -0.339037 -0.234736 0.304069 -1.86542 -0.269069 -2.95879
181 2 9.48 9.48 0 -0.0326676 -0.240913 0.675408 1.88075 1.57888 -0.698159
182 1 11.06 11.06 1.58 0.0596732 -0.218379 -0.0442042 0.544734 -0.538758 0.0401544
183 1 9.48 9.48 3.16 0.0200052 0.359996 -0.350555 -1.05527 -0.622104 0.478435
184 4 11.06 11.06 4.74 -0.160097 -0.274453 0.327655 3.326 2.31255 1.36309
185 2 9.48 9.48 6.32 -0.0705432 0.835424 0.309414 0.694744 -0.393641 1.6531
186 4 11.06 11.06 7.9 -0.156357 0.189374 0.00537267 -1.19598 -1.52689 -1.02059
187 1 9.48 9.48 9.48 0.365072 0.224767 -0.021566 -0.875302 1.51008 1.34792
188 4 11.06 11.06 11.06 -0.0456734 -0.116561 -0.204236 2.25375 -0.605015 2.67348
189 1 9.48 9.48 12.64 0.526434 -0.088478 -0.569039 0.0664403 1.11108 -1.24847
190 3 11.06 11.06 14.22 0.0333399 0.819765 -0.352763 0.795715 1.19024 -0.391278
191 2 9.48 12.64 0 0.16517 0.248427 0.276629 1.98336 0.486844 0.0398176
192 4 11.06 14.22 1.58 0.181968 -0.0388958 -0.965983 -2.70982 -0.00625127 -0.424224
193 3 9.48 12.64 3.16 -0.0890682 -0.592713 0.0917947 0.409248 0.747106 0.464087
194 3 11.06 14.22 4.74 0.422008 -0.877591 1.03678 1.735 -1.19893 -0.230719
195 4 9.48 12.64 6.32 0.157504 -0.511286 -0.06461 -0.373879 -3.42912 2.92511
196 1 11.06 14.22 7.9 0.307451 -0.570233 -0.0110288 -0.704668 1.20374 0.62327
197 1 9.48 12.64 9.48 0.865683 -0.635432 -0.447417 -0.580397 0.0749632 1.33238
198 2 11.06 14.22 11.06 0.356026 0.145083 0.111629 -0.368589 2.31442 -0.653601
199 2 9.48 12.64 12.64 0.587961 0.205497 0.308973 1.19504 -0.723871 -0.268125
200 4 11.06 14.22 14.22 0.167215 0.205049 0.120257 0.422134 1.66568 -0.198371
201 4 12.64 0 0 -0.237769 -0.349786 -0.28281 1.04562 2.1964 -1.20685
202 3 14.22 1.58 1.58 0.819935 0.117952 -0.527365 -1.02246 1.68457 0.686128
203 3 12.64 0 3.16 -0.319074 -0.471758 -0.712374 2.82315 -0.135607 -0.131858
204 3 14.22 1.58 4.74 0.304683 0.115439 0.49488 0.115814 0.376797 3.16891
205 2 12.64 0 6.32 0.16515 -0.00174047 0.6068 1.43987 2.5849 0.954258
206 4 14.22 1.58 7.9 0.169983 -0.390008 0.0654129 -0.339454 -1.28892 -1.49286
207 2 12.64 0 9.48 0.295041 -0.0610342 0.185847 -0.509468 -2.93302 0.179194
208 1 14.22 1.58 11.06 0.299227 -0.64931 -0.141033 0.611532 0.25732 -1.19964
209 1 12.64 0 12.64 -0.0108261 -0.0372581 0.134937 -0.0279541 -1.66684 0.813024
210 4 14.22 1.58 14.22 0.114439 -0.502677 0.0850862 2.4099 2.93956 -1.77112
211 3 12.64 3.16 0 -0.0082019 -0.362282 -0.313575 1.24706 -0.490273 1.90681
212 4 14.22 4.74 1.58 0.274306 0.396506 0.0845041 -1.49726 -2.78757 -3.76049
213 3 12.64 3.16 3.16 0.0353645 0.398221 0.405625 -0.587776 -0.964173 0.562199
214 1 14.22 4.74 4.74 -0.36066 0.0689627 0.00203102 -1.72057 -1.76613 0.316533
215 4 12.64 3.16 6.32 -0.190576 0.450295 0.255662 -0.460889 1.70656 -1.70486
216 4 14.22 4.74 7.9 -0.149539 0.195509 0.126111 -0.261935 -1.46397 -0.172767
217 3 12.64 3.16 9.48 0.0515484 -0.0657436 -0.181589 1.23627 -0.884722 1.71718
218 4 14.22 4.74 11.06 0.61247 0.0437473 -0.469822 4.01915 0.114577 -0.507663
219 3 12.64 3.16 12.64 -0.230224 -0.460236 -0.479147 -1.27701 -0.0977459 -0.340433
220 3 14.22 4.74 14.22 0.378927 0.190579 0.708032 1.13188 0.112003 -0.829388
221 4 12.64 6.32 0 -0.101832 0.31019 0.0925838 -4.68526 0.631997 -3.68198
222 1 14.22 7.9 1.58 -0.0911643 -0.198305 0.247563 0.00950639 -0.244915 -1.12472
223 1 12.64 6.32 3.16 0.336547 0.193768 -0.201131 0.80057 0.635842 -0.399834
224 1 14.22 7.9 4.74 -0.449472 -0.0204375 -0.505092 -3.29579 -1.80146 1.99877
225 4 12.64 6.32 6.32 0.415644 -0.468494 0.200961 -2.48139 -1.92982 0.813302
226 4 14.22 7.9 7.9 -0.290025 -0.131823 0.350631 0.389319 0.768727 -2.78605
227 2 12.64 6.32 9.48 0.401506 0.0607249 -0.114057 -0.728689 -0.811837 -1.25645
228 4 14.22 7.9 11.06 -0.0672595 0.245927 -0.544595 -2.19344 -4.77346 -2.9009
229 3 12.64 6.32 12.64 0.0839555 0.454998 -0.160324 1.86479 -0.371693 -0.11333
230 4 14.22 7.9 14.22 -0.109717 -0.127318 0.3367 2.47593 2.29392 3.15135
231 3 12.64 9.48 0 0.58796 -0.299046 0.397621 0.675954 0.684689 -1.69608
232 2 14.22 11.06 1.58 0.110901 -0.270575 -0.331963 0.771381 1.87645 0.723153
233 4 12.64 9.48 3.16 0.23486 0.194927 -0.206426 -1.00668 -0.348882 -1.46223
234 2 14.22 11.06 4.74 -0.58142 -0.486707 0.0120293 -0.432862 1.70254 0.474902
235 2 12.64 9.48 6.32 0.231434 0.26945 0.329659 -0.506961 -0.253344 -2.62699
236 4 14.22 11.06 7.9 -0.437511 0.0330788 0.515094 5.15883 -0.224081 -0.0880244
237 2 12.64 9.48 9.48 0.164503 0.123177 0.0534898 2.11413 -1.04817 -0.557303
238 1 14.22 11.06 11.06 -0.231271 0.297294 -0.209912 1.01084 1.91042 -0.412288
239 1 12.64 9.48 12.64 0.328803 -0.244583 -0.240911 0.577526 -1.58709 1.26752
240 4 14.22 11.06 14.22 -0.0975379 0.365587 -0.178295 -2.05738 -3.34897 -3.32645
241 4 12.64 12.64 0 -0.0329972 0.231084 0.228125 -3.53054 3.10648 0.597991
242 2 14.22 14.22 1.58 -0.125615 0.19532 -0.769055 -1.8789 -0.976945 1.2196
243 3 12.64 12.64 3.16 0.00588684 -0.631498 -0.310144 0.0217683 -0.5616 1.28307
244 1 14.22 14.22 4.74 -0.00816124 0.206905 0.696475 -0.581892 -3.26636 -0.667009
245 4 12.64 12.64 6.32 0.0355431 -0.153537 0.158119 0.820677 0.273538 -2.38423
246 1 14.22 14.22 7.9 -0.214075 0.0992638 0.43819 0.0995664 0.920468 1.21872
247 2 12.64 12.64 9.48 0.125508 -0.178745 -0.062867 0.301154 -2.48379 -0.534368
248 4 14.22 14.22 11.06 0.110822 -0.00152714 -0.0313734 -2.56067 1.44433 -2.97273
249 2 12.64 12.64 12.64 0.371301 0.206254 -0.0992908 0.661884 1.60914 -2.89823
250 2 14.22 14.22 14.22 -0.0673105 0.0347891 -0.19706 2.16951 -0.136846 2.22762
ITEM: TIMESTEP
1
ITEM: NUMBER OF ATOMS
250
ITEM: BOX BOUNDS pp pp pp
0.0000000000000000e+00 1.5800000000000001e+01
0.0000000000000000e+00 1.5800000000000001e+01
0.0000000000000000e+00 1.5800000000000001e+01
ITEM: ATOMS id type x y z fx fy fz vx vy vz
1 1 0.000752212 0.00167801 -0.00128575 0.198033 -0.289274 -0.494743 0.757409 1.67042 -1.29873
2 2 1.57923 1.58135 1.57889 0.0184834 -0.403619 0.277354 -0.766335 1.32738 -1.0932
3 1 -7.60155e-05 -0.000114948 3.1591 0.612475 -0.641063 -0.0301811 -0.0599432 -0.131771 -0.903726
4 3 1.57954 1.5796 4.74045 0.126562 -0.970776 -0.703684 -0.460851 -0.428906 0.429273
5 1 -1.19115e-05 0.000264626 6.32113 -0.132512 -0.383224 0.0599893 -0.0153888 0.254569 1.12808
6 3 1.5784 1.57834 7.90006 -0.032691 -0.647999 0.71917 -1.5979 -1.68034 0.0805244
7 4 -0.000502159 0.00148975 9.47825 -0.485162 -0.0689875 0.423229 -0.548105 1.48322 -1.71109
8 2 1.57963 1.58123 11.0627 -0.277789 -0.38683 -0.321874 -0.388161 1.21442 2.72476
9 2 -0.00101389 -0.000830725 12.643 0.0266678 -0.0924847 -0.100454 -1.01255 -0.835375 2.9626
10 2 1.5805 1.58001 14.2241 -0.486549 -0.679386 -0.0756228 0.472688 -0.0248852 4.0548
11 2 0.00239863 3.15722 0.00188172 0.118651 -0.259014 -0.112094 2.40459 -2.79319 1.87608
12 3 1.57905 4.7401 1.57868 -0.686166 0.00318558 -0.0784326 -0.970956 0.0966137 -1.32432
13 4 0.000338824 3.15855 3.16108 -0.432067 0.228402 -0.128211 0.297906 -1.43305 1.06618
14 3 1.57895 4.73982 4.74046 -0.114871 0.0676031 -0.809105 -1.0521 -0.179755 0.44079
15 3 -0.000715558 3.16266 6.31889 -1.34973 0.160202 0.432546 -0.751544 2.66509 -1.10174
16 3 1.58026 4.73978 7.89863 -0.0731241 0.215692 1.27482 0.253992 -0.210121 -1.33928
17 1 -0.000771964 3.15916 9.47906 -0.526671 0.22274 0.208572 -0.785785 -0.831557 -0.938648
18 1 1.58025 4.74074 11.0618 0.0212013 0.099672 -0.443828 0.251038 0.745962 1.79498
19 2 -0.00245731 3.15883 12.6427 0.0566836 -0.270102 -0.171265 -2.45446 -1.18193 2.74039
20 1 1.57864 4.74227 14.2201 0.0316953 0.412101 -0.0197743 -1.3586 2.28429 0.0591846
21 2 -0.00149729 6.32109 -0.00120239 -0.258177 0.546418 -0.0179384 -1.51027 1.11674 -1.20329
22 2 1.57727 7.90034 1.58226 -0.32961 0.0883288 -0.329046 -2.74481 0.347418 2.24729
23 2 -0.00130163 6.31775 3.16149 -0.41181 0.402529 -0.080985 -1.32233 -2.22882 1.4908
24 4 1.57704 7.89967 4.73745 -0.0298672 0.0906483 -0.0147529 -2.96143 -0.316682 -2.5528
25 3 3.41953e-05 6.31964 6.31911 -1.24811 0.518907 0.172499 0.000919257 -0.349187 -0.886819
26 3 1.58262 7.89937 7.90021 0.0958362 -0.143311 0.465436 2.62668 -0.638811 0.225417
27 4 -0.00046008 6.32023 9.48153 -0.758482 -0.302017 0.175985 -0.53191 0.198222 1.54406
28 3 1.58109 7.90031 11.0605 0.36698 -0.0566965 -0.286602 1.0962 0.311974 0.528941
29 3 -0.00105318 6.31955 12.6389 -0.232963 0.13084 -0.383507 -1.05939 -0.448919 -1.11965
30 1 1.57797 7.90113 14.2191 0.461015 -0.0687912 0.0715108 -2.02064 1.12532 -0.872261
31 2 6.55329e-05 9.4792 0.00103561 0.0385775 0.106746 0.166584 0.0674725 -0.793444 1.04399
32 2 1.58157 11.0621 1.57822 -0.271271 -0.260439 -0.0986605 1.55272 2.07059 -1.78204
33 4 0.000764795 9.48158 3.15936 -0.09867 0.0161875 0.21695 0.755451 1.57946 -0.622382
34 1 1.58052 11.0599 4.7411 0.559701 -0.00597045 -0.318764 0.538703 -0.0820191 1.09318
35 3 -0.00120038 9.47879 6.32044 -0.374259 0.262442 -0.346458 -1.21036 -1.20491 0.435161
36 2 1.58192 11.0601 7.90153 0.0700904 -0.254218 0.403137 1.92532 0.106184 1.55526
37 1 0.000807598 9.48027 9.47968 -0.567019 0.323095 -0.00826473 0.792718 0.276567 -0.319118
38 4 1.58064 11.0617 11.0624 -0.248104 -0.123652 -0.167861 0.615847 1.70294 2.39588
39 3 0.00223962 9.48008 12.642 -0.589584 0.361095 0.180979 2.2239 0.0934739 2.00449
40 1 1.57961 11.0596 14.2189 -0.347251 -0.21791 -0.106697 -0.394179 -0.395139 -1.10374
41 2 0.00157151 12.6384 0.00154688 -0.253016 0.0166336 -0.286626 1.55878 -1.55613 1.53247
42 1 1.58268 14.219 1.57929 0.457243 0.53452 0.0964319 2.69311 -0.936318 -0.703767
43 3 -0.000243982 12.6394 3.15876 0.337796 -0.222847 -0.0234624 -0.234976 -0.573138 -1.24052
44 4 1.58267 14.2155 4.74046 0.459537 0.652459 -0.143691 2.71319 -4.45066 0.450078
45 3 -0.00033118 12.641 6.31918 -0.719882 -0.358515 -0.169533 -0.350373 0.947885 -0.822069
46 3 1.57967 14.2205 7.90091 -0.0137726 1.01588 0.11096 -0.329171 0.494075 0.911378
47 1 0.000846175 12.637 9.47809 -0.279193 0.0169856 0.515043 0.838849 -3.03047 -1.89443
48 4 1.58092 14.2245 11.062 -0.490899 0.313438 0.0883026 0.875825 4.48291 1.99148
49 1 -0.000694947 12.6413 12.6403 0.0496671 0.157596 -0.14377 -0.693643 1.26194 0.260246
50 4 1.58089 14.2197 14.222 -0.339523 0.415749 -0.128787 0.855771 -0.29293 1.94454
51 4 3.15784 0.000900147 0.00223334 -0.135061 0.110284 0.144337 -2.17465 0.910591 2.24701
52 4 4.74037 1.58375 1.57951 0.0246644 -0.37578 -0.0942426 0.369031 3.71563 -0.499909
53 4 3.15775 -0.00188682 3.16038 0.239134 -0.323988 -0.238954 -2.23225 -1.9175 0.359426
54 2 4.74128 1.58312 4.74031 -0.506682 -0.854517 -0.422623 1.25834 3.08181 0.288979
55 4 3.15709 0.000699562 6.32209 0.25485 -0.367163 -0.60795 -2.88881 0.664791 2.02961
56 3 4.73905 1.58022 7.89928 0.064991 -0.599293 0.754762 -0.943333 0.202421 -0.700665
57 2 3.16325 -0.000221248 9.48138 -0.550581 -0.119454 0.216312 3.21858 -0.227254 1.38636
58 3 4.7408 1.58123 11.06 0.203489 -0.117635 -0.419017 0.803187 1.22287 -0.0292794
59 4 3.16278 0.00010186 12.6374 -0.543214 -0.112483 0.474633 2.72984 0.0912075 -2.53718
60 1 4.73898 1.57995 14.2195 0.553549 -0.44161 0.416538 -1.01012 -0.0578121 -0.454287
61 3 3.16253 3.16047 -0.000846838 0.873503 -0.632804 -0.0638735 2.5492 0.455885 -0.848541
62 4 4.74129 4.73949 1.58401 0.306738 0.224556 -0.115642 1.31814 -0.491712 3.99528
63 2 3.15968 3.15806 3.15893 0.621085 -0.273784 -0.365843 -0.29358 -1.95398 -1.08523
64 1 4.74047 4.73976 4.74034 0.318286 0.816704 -0.116843 0.480388 -0.21892 0.33826
65 3 3.15989 3.1596 6.32122 0.846605 0.0373365 -0.0457728 -0.0918742 -0.396524 1.22268
66 2 4.73951 4.74162 7.89932 0.175993 0.430818 0.445318 -0.477101 1.64126 -0.658243
67 4 3.1618 3.15868 9.48179 -0.0501175 0.505038 0.320025 1.79598 -1.27243 1.81639
68 1 4.7374 4.74022 11.0605 0.484611 0.127604 -0.10855 -2.58698 0.220368 0.546248
69 3 3.15849 3.16207 12.6393 -0.33497 0.196869 0.0783832 -1.51838 2.076 -0.696074
70 2 4.7404 4.73795 14.2165 0.606294 0.502151 0.135378 0.425628 -2.0221 -3.46074
71 2 3.15967 6.32269 -0.00057833 -0.0315771 0.0415311 0.0570627 -0.33065 2.69353 -0.575461
72 4 4.74291 7.90278 1.57911 0.507327 -0.186937 -0.284737 2.95411 2.76119 -0.913297
73 3 3.15914 6.31919 3.16219 0.740434 0.392552 -0.415826 -0.836021 -0.797857 2.17576
74 3 4.74046 7.90011 4.74138 0.820423 -0.0026479 0.339924 0.484825 0.108414 1.38407
75 1 3.15913 6.32013 6.32284 0.492996 0.229025 -0.071725 -0.854491 0.135469 2.83924
76 2 4.73874 7.90034 7.89946 0.32866 0.00105909 -0.014305 -1.24446 0.344502 -0.538784
77 1 3.16094 6.32116 9.48142 0.212816 -0.486582 -0.0653915 0.942439 1.14353 1.42024
78 3 4.74221 7.8997 11.0583 0.179929 -0.0767569 0.20693 2.21259 -0.305499 -1.7117
79 4 3.16173 6.31768 12.6362 -0.325901 -0.564774 0.154539 1.69728 -2.37441 -3.8158
80 3 4.73908 7.90198 14.2196 -0.120755 -0.219258 0.0811588 -0.920698 1.9785 -0.365494
81 1 3.15939 9.4818 -0.000278508 -0.246023 -0.151321 0.454801 -0.616256 1.79136 -0.266573
82 2 4.73668 11.0591 1.58056 0.324947 -0.441138 -0.00540744 -3.30563 -0.901922 0.554923
83 3 3.16072 9.48027 3.15967 -0.32357 0.458584 -0.0992246 0.713093 0.286313 -0.330719
84 4 4.73892 11.0617 4.74127 0.0357034 -0.0884939 0.511804 -1.08071 1.71802 1.32207
85 1 3.15848 9.47757 6.32024 0.199398 0.368579 -0.328898 -1.51924 -2.4224 0.226547
86 1 4.74171 11.0624 7.89943 0.667955 -0.54799 -0.320383 1.7233 2.40418 -0.579257
87 1 3.15974 9.47977 9.48226 0.0908155 0.650936 0.000260705 -0.260802 -0.216031 2.25717
88 1 4.74067 11.0588 11.0586 0.0285412 -0.873386 -0.37842 0.666254 -1.26639 -1.43608
89 4 3.15892 9.48053 12.6394 -0.502167 0.503121 -0.0286263 -1.127 0.574199 -0.598018
90 3 4.73863 11.0618 14.2217 0.24265 -1.08217 0.0469066 -1.36457 1.73233 1.67794
91 3 3.16178 12.6382 -0.00129555 -0.653746 0.369273 0.890564 1.75935 -1.83764 -1.27181
92 2 4.73696 14.219 1.57969 -0.259595 0.821678 0.117696 -3.05236 -0.976663 -0.303833
93 4 3.16028 12.6414 3.16036 -0.203591 0.175627 0.290213 0.257793 1.38501 0.386184
94 1 4.7389 14.2215 4.73882 -0.699652 0.223958 0.135352 -1.11857 1.54147 -1.17419
95 2 3.15854 12.6414 6.32033 0.317936 -0.198023 -0.710671 -1.44077 1.41704 0.290333
96 2 4.73863 14.2171 7.89909 0.204661 0.266601 -0.358027 -1.36046 -2.85298 -0.929402
97 3 3.15963 12.6392 9.47844 -0.383235 -0.670673 0.278686 -0.378059 -0.779318 -1.55005
98 3 4.73993 14.2181 11.0622 -0.189897 1.04679 -0.301541 -0.0788801 -1.88431 2.15939
99 3 3.16008 12.6384 12.6407 -1.55132 -0.0701583 -0.457787 0.0370792 -1.63418 0.671178
100 3 4.73792 14.2192 14.2189 -0.156672 1.34631 0.335859 -2.07968 -0.744197 -1.07313
101 2 6.31825 0.00164782 0.000813487 0.0553105 0.668813 0.338602 -1.74416 1.68144 0.830511
102 4 7.8974 1.57861 1.57706 -0.205606 0.0902355 -0.364442 -2.62235 -1.38056 -2.97115
103 1 6.3213 -0.00188533 3.16005 -0.280073 0.361619 -0.2585 1.29095 -1.87584 0.0469642
104 1 7.89982 1.57935 4.7406 0.0624043 -0.109149 -0.0476274 -0.182604 -0.657537 0.595948
105 1 6.31888 0.000897083 6.31811 -0.026791 0.0437677 -0.311735 -1.11607 0.898232 -1.90114
106 4 7.89704 1.57823 7.89827 0.0637022 0.229555 0.497373 -2.95764 -1.75177 -1.68758
107 2 6.3184 -0.00286157 9.48007 0.331293 0.57154 -0.309556 -1.58282 -2.83283 0.0499202
108 1 7.90036 1.5806 11.0608 0.133066 0.367192 -0.285929 0.364985 0.605826 0.748385
109 1 6.32005 0.00244706 12.6386 0.402852 0.638582 0.749568 0.0561144 2.46382 -1.3712
110 4 7.90189 1.58051 14.2218 -0.410861 -0.217271 0.113552 1.84667 0.493481 1.80689
111 4 6.32316 3.16295 -8.99766e-05 -0.318134 -0.517564 0.139226 3.13352 2.89901 -0.0767916
112 2 7.9004 4.73878 1.58007 -0.0174078 0.345133 -0.346453 0.399776 -1.19805 0.0564898
113 3 6.31998 3.16146 3.15896 -0.302815 -0.241902 -1.12942 -0.023421 1.45216 -1.07154
114 3 7.90202 4.74057 4.74071 0.268911 0.867284 0.0138541 2.02322 0.590252 0.706752
115 3 6.31993 3.16141 6.31859 0.173888 0.0758125 0.44183 -0.0638555 1.40926 -1.39447
116 1 7.89941 4.73868 7.89845 -0.05962 -0.0933082 0.328558 -0.594399 -1.32562 -1.54158
117 4 6.31979 3.15945 9.47982 0.57112 0.512846 0.169902 -0.154242 -0.498158 -0.162098
118 4 7.89928 4.74031 11.0608 -0.640904 -0.243246 0.0155667 -0.781067 0.286565 0.763111
119 1 6.32005 3.1591 12.6392 0.388527 0.102286 0.0419347 0.064068 -0.893 -0.790765
120 3 7.89852 4.74025 14.2186 -0.423732 0.273546 0.166536 -1.49427 0.258005 -1.37427
121 2 6.31987 6.31846 0.000235277 -0.127161 -0.337627 0.838647 -0.1363 -1.55811 0.277444