LAMMPS (2 Aug 2023 - Update 4)
  using 1 OpenMP thread(s) per MPI task
variable        NSTEPS          equal 100
variable        THERMO_FREQ     equal 1
variable        DUMP_FREQ       equal 1
variable        restart         equal 0
variable        TEMP            equal 300.000000
variable        PRESS           equal 0.000000
variable        TAU_T           equal 0.050000
variable        TAU_P           equal 0.500000

units           metal
boundary        p p p
atom_style      atomic

neighbor        1.0 bin
neigh_modify    delay 10

lattice fcc 3.615
Lattice spacing in x,y,z = 3.615 3.615 3.615
region box block 0 5 0 5 0 5
create_box 1 box
Created orthogonal box = (0 0 0) to (18.075 18.075 18.075)
  1 by 1 by 1 MPI processor grid
create_atoms 1 box
Created 500 atoms
  using lattice units in orthogonal box = (0 0 0) to (18.075 18.075 18.075)
  create_atoms CPU = 0.000 seconds

mass   1    63.546
pair_style   nep
pair_coeff       * * ../../nep.txt Cu

compute    allPe   all   pe
compute    myVirial all pressure NULL virial
variable   N_total equal count(all)
variable   pe_peratom equal c_allPe/v_N_total
variable   W_xx  equal c_myVirial[1]/v_N_total
variable   W_yy  equal c_myVirial[2]/v_N_total
variable   W_zz  equal c_myVirial[3]/v_N_total
variable   W_xy  equal c_myVirial[4]/v_N_total
variable   W_xz  equal c_myVirial[5]/v_N_total
variable   W_yz  equal c_myVirial[6]/v_N_total

thermo_style    custom step temp v_pe_peratom v_W_xx v_W_yy v_W_zz v_W_xy v_W_xz v_W_yz
thermo          ${THERMO_FREQ}
thermo          1

if "${restart} == 0" then "velocity        all create ${TEMP} 35826"
velocity        all create ${TEMP} 35826
velocity        all create 300 35826
fix             1 all nvt temp ${TEMP} ${TEMP} ${TAU_T} #iso ${PRESS} ${PRESS} ${TAU_P}
fix             1 all nvt temp 300 ${TEMP} ${TAU_T} 
fix             1 all nvt temp 300 300 ${TAU_T} 
fix             1 all nvt temp 300 300 0.05 
timestep        0.001000
#run             ${NSTEPS}
dump            1 all custom ${DUMP_FREQ} lammps.dump id type x y z fx fy fz vx vy vz
dump            1 all custom 1 lammps.dump id type x y z fx fy fz vx vy vz
dump_modify     1 sort id

run             ${NSTEPS}
run             100
Neighbor list info ...
  update: every = 1 steps, delay = 10 steps, check = yes
  max neighbors/atom: 2000, page size: 100000
  master list distance cutoff = 7
  ghost atom cutoff = 7
  binsize = 3.5, bins = 6 6 6
  1 neighbor lists, perpetual/occasional/extra = 1 0 0
  (1) pair nep, perpetual
      attributes: full, newton on
      pair build: full/bin/atomonly
      stencil: full/bin/3d
      bin: standard
Per MPI rank memory allocation (min/avg/max) = 3.144 | 3.144 | 3.144 Mbytes
   Step          Temp       v_pe_peratom      v_W_xx         v_W_yy         v_W_zz         v_W_xy         v_W_xz         v_W_yz    
         0   300           -3.7297997      43.914144      43.914144      43.914144     -1.6423032e-16 -1.0177397e-15 -2.4209485e-17
         1   299.65395     -3.729755       43.952715      43.952624      43.951703      0.0020790161  -0.00046172376 -0.0022658895 
         2   298.61767     -3.7296212      44.06827       44.067913      44.064192      0.0083406065  -0.0018519083  -0.0090535471 
         3   296.89712     -3.729399       44.260269      44.25947       44.251021      0.018808152   -0.0041815359  -0.020331823  
         4   294.50254     -3.7290895      44.527757      44.526336      44.511182      0.033486629   -0.0074658271  -0.036048285  
         5   291.4484      -3.7286943      44.869374      44.867136      44.843258      0.052361909   -0.011723667   -0.056129483  
         6   287.75332     -3.7282155      45.283355      45.280083      45.245427      0.075399996   -0.016976925   -0.080481174  
         7   283.43984     -3.7276558      45.767535      45.762985      45.71547       0.1025462     -0.023249676   -0.10898854   
         8   278.53435     -3.7270181      46.319363      46.313254      46.250778      0.13372431    -0.030567355   -0.14151638   
         9   273.06681     -3.7263059      46.935906      46.927914      46.848367      0.16883576    -0.038955852   -0.17790937   
        10   267.07055     -3.725523       47.613862      47.603614      47.504888      0.20775888    -0.048440574   -0.2179923    
        11   260.58205     -3.7246738      48.349578      48.336644      48.216648      0.25034822    -0.059045494   -0.26157039   
        12   253.64061     -3.7237629      49.139062      49.122952      48.979623      0.29643404    -0.070792215   -0.30842972   
        13   246.28811     -3.7227953      49.978004      49.958161      49.78948       0.34582197    -0.083699051   -0.35833777   
        14   238.56864     -3.7217764      50.8618        50.837594      50.641602      0.39829291    -0.097780175   -0.41104402   
        15   230.52826     -3.7207116      51.785581      51.756414      51.53124       0.45360163    -0.11305829    -0.46616485   
        16   222.21456     -3.719607       52.744455      52.709475      52.453342      0.51159886    -0.12956258    -0.52347243   
        17   213.6764      -3.7184686      53.7331        53.691447      53.402819      0.57193886    -0.14730615    -0.5825199    
        18   204.96349     -3.7173027      54.746268      54.697004      54.374055      0.63459805    -0.16633247    -0.64305022   
        19   196.12604     -3.7161157      55.77866       55.720584      55.361432      0.69917724    -0.18660233    -0.70481875   
        20   187.2144      -3.7149141      56.824545      56.756338      56.359871      0.76513759    -0.20815822    -0.76743537   
        21   178.27867     -3.7137046      57.878244      57.79847       57.363976      0.8319301     -0.23115277    -0.83077031   
        22   169.36833     -3.7124938      58.933434      58.841047      58.3676        0.89935108    -0.25549553    -0.89460991   
        23   160.53194     -3.7112884      59.984324      59.877795      59.364823      0.9670538     -0.28124952    -0.95843903   
        24   151.8167      -3.7100948      61.025273      60.902972      60.350011      1.0346452     -0.30805143    -1.0218953    
        25   143.26822     -3.7089197      62.050201      61.910793      61.317242      1.1015985     -0.33588998    -1.0846749    
        26   134.93019     -3.7077693      63.053243      62.895207      62.261131      1.1675155     -0.36475364    -1.1465918    
        27   126.84418     -3.7066499      64.02884       63.850432      63.176149      1.2320221     -0.39470079    -1.2070167    
        28   119.04954     -3.7055674      64.971553      64.771073      64.056996      1.294605      -0.42561562    -1.2655819    
        29   111.58336     -3.7045275      65.875832      65.651704      64.898512      1.3548137     -0.45726226    -1.3219479    
        30   104.48047     -3.7035357      66.736934      66.487345      65.696094      1.4122701     -0.48950379    -1.3758224    
        31   97.773557     -3.7025971      67.550226      67.273313      66.445424      1.4665598     -0.52221835    -1.4269297    
        32   91.493316     -3.7017164      68.311176      68.005294      67.142354      1.5172183     -0.55532196    -1.4750456    
        33   85.668506     -3.7008979      69.015675      68.679211      67.783115      1.5639974     -0.58857153    -1.5198521    
        34   80.325966     -3.7001456      69.660215      69.291513      68.364394      1.6065319     -0.62182187    -1.560959     
        35   75.490473     -3.6994627      70.241618      69.839147      68.883209      1.6444536     -0.65506711    -1.5980844    
        36   71.184455     -3.6988522      70.757219      70.319569      69.337168      1.6775417     -0.68820878    -1.6310534    
        37   67.427578     -3.6983163      71.204901      70.730748      69.724413      1.7055357     -0.72114309    -1.6596538    
        38   64.236258     -3.6978568      71.583086      71.071123      70.043599      1.7283563     -0.75369793    -1.6838102    
        39   61.62319      -3.6974747      71.890637      71.339715      70.293988      1.7457288     -0.78583455    -1.7033626    
        40   59.596941     -3.6971707      72.127056      71.5361        70.475293      1.7574768     -0.81745502    -1.7181928    
        41   58.161672     -3.6969445      72.292487      71.660523      70.587898      1.7634986     -0.8485074     -1.7282482    
        42   57.316999     -3.6967955      72.38754       71.713828      70.632629      1.7637911     -0.87883895    -1.7334812    
        43   57.057989     -3.6967224      72.413403      71.697337      70.610838      1.7583507     -0.90835235    -1.7338598    
        44   57.375275     -3.6967233      72.371844      71.612943      70.524374      1.7472379     -0.9369675     -1.7294518    
        45   58.255239     -3.6967959      72.26506       71.46295       70.375599      1.7305299     -0.9646413     -1.7203567    
        46   59.680252     -3.6969374      72.09576       71.25023       70.167387      1.7083438     -0.99125592    -1.7066405    
        47   61.628949     -3.6971444      71.867045      70.978072      69.902936      1.6808347     -1.0167881     -1.6884105    
        48   64.076503     -3.6974131      71.582484      70.650173      69.585902      1.6482286     -1.0411829     -1.6658495    
        49   66.994917     -3.6977395      71.245924      70.27059       69.220209      1.6107322     -1.0644273     -1.639129     
        50   70.35331      -3.6981191      70.861713      69.843801      68.810201      1.5685468     -1.0864905     -1.6084339    
        51   74.118208     -3.6985471      70.434365      69.374549      68.360441      1.5219412     -1.1072931     -1.5740245    
        52   78.253847     -3.6990185      69.968649      68.867668      67.875724      1.4711804     -1.1267206     -1.5361263    
        53   82.722483     -3.6995282      69.469511      68.328235      67.360931      1.4165622     -1.1447455     -1.4949822    
        54   87.48472      -3.7000709      68.942095      67.761743      66.821105      1.3584225     -1.1613971     -1.4508794    
        55   92.49985      -3.700641       68.3917        67.173394      66.26146       1.2970846     -1.176685      -1.4040492    
        56   97.726209     -3.701233       67.823464      66.568434      65.687174      1.2328151     -1.1904806     -1.354804     
        57   103.12155     -3.7018416      67.242736      65.952269      65.103374      1.1659267     -1.2027074     -1.3034394    
        58   108.64343     -3.7024611      66.654799      65.330308      64.515291      1.0967394     -1.2132579     -1.2503189    
        59   114.24956     -3.7030862      66.064784      64.707762      63.928036      1.0256665     -1.2221152     -1.195772     
        60   119.89823     -3.7037116      65.477574      64.089652      63.346503      0.95302989    -1.2292735     -1.1401063    
        61   125.5486      -3.7043321      64.898039      63.48092       62.775491      0.8791255     -1.2346852     -1.0835767    
        62   131.16108     -3.7049429      64.330984      62.886291      62.219596      0.80429251    -1.2383015     -1.0264319    
        63   136.69761     -3.7055392      63.780798      62.310224      61.68316       0.72890359    -1.2400835     -0.96893318   
        64   142.12198     -3.7061166      63.251586      61.756837      61.17019       0.6531663     -1.2399327     -0.91145355   
        65   147.40001     -3.706671       62.747226      61.230018      60.684489      0.57735391    -1.2377478     -0.85420165   
        66   152.49985     -3.7071984      62.271307      60.733336      60.229523      0.50180705    -1.2334554     -0.7974793    
        67   157.39211     -3.7076953      61.827165      60.270047      59.808498      0.42666853    -1.2270384     -0.74157507   
        68   162.05003     -3.7081586      61.417584      59.842976      59.424254      0.35226213    -1.2183567     -0.68675968   
        69   166.44964     -3.7085854      61.045248      59.454898      59.079442      0.27899196    -1.207335      -0.63326127   
        70   170.56988     -3.7089734      60.712158      59.107731      58.775946      0.20689995    -1.1939487     -0.58130124   
        71   174.39261     -3.7093205      60.420016      58.803225      58.515395      0.13617182    -1.1781129     -0.53109577   
        72   177.90279     -3.7096249      60.170238      58.542719      58.29914       0.067145045   -1.1597636     -0.48288441   
        73   181.0884      -3.7098855      59.963734      58.327163      58.128167     -9.3943431e-05 -1.1388301     -0.43686164   
        74   183.94056     -3.7101014      59.800978      58.157127      58.002901     -0.065283208   -1.1153519     -0.39328107   
        75   186.45346     -3.710272       59.682251      58.032801      57.923515     -0.12819537    -1.0893812     -0.35222415   
        76   188.62437     -3.7103974      59.607398      57.953953      57.889745     -0.18867656    -1.0609586     -0.31390636   
        77   190.4536      -3.7104776      59.575873      57.920092      57.900902     -0.2465639     -1.0300355     -0.27845508   
        78   191.94439     -3.7105135      59.586815      57.930343      57.956045     -0.30168269    -0.99664002    -0.24602213   
        79   193.10292     -3.710506       59.63909       57.983544      58.054005     -0.3538273     -0.96078767    -0.21673839   
        80   193.93812     -3.7104565      59.731154      58.078187      58.193192     -0.40284834    -0.92255133    -0.19061909   
        81   194.46155     -3.7103665      59.86116       58.212409      58.371591     -0.44860268    -0.88200229    -0.1677534    
        82   194.68734     -3.7102382      60.027053      58.384117      58.586936     -0.49092813    -0.83924963    -0.14817229   
        83   194.63194     -3.7100737      60.226401      58.590881      58.836654     -0.52967564    -0.79437366    -0.13189831   
        84   194.31401     -3.7098756      60.456721      58.830112      59.118005     -0.56476795    -0.74748193    -0.11898769   
        85   193.75419     -3.7096467      60.715155      59.098958      59.428082     -0.59599558    -0.69890358    -0.10939918   
        86   192.97493     -3.7093899      60.998684      59.394424      59.763611     -0.62312201    -0.6487581     -0.10319214   
        87   192.00027     -3.7091084      61.304289      59.713347      60.121289     -0.64607547    -0.59720496    -0.10020178   
        88   190.85558     -3.7088055      61.628525      60.052455      60.497523     -0.66483461    -0.54451236    -0.10037028   
        89   189.56739     -3.7084847      61.967858      60.408203      60.888612     -0.67940398    -0.49084752    -0.10355947   
        90   188.16309     -3.7081496      62.31887       60.777425      61.290933     -0.68966169    -0.43640868    -0.10972844   
        91   186.6707      -3.7078037      62.677951      61.156292      61.700723     -0.6956212     -0.38131858    -0.11869918   
        92   185.11865     -3.7074508      63.04152       61.541231      62.114154     -0.6972016     -0.32596971    -0.13025036   
        93   183.53548     -3.7070945      63.405966      61.928631      62.527334     -0.69457971    -0.27066158    -0.1441691    
        94   181.94965     -3.7067384      63.767775      62.314916      62.936589     -0.68766971    -0.215761      -0.1602907    
        95   180.38921     -3.7063862      64.123437      62.696668      63.338074     -0.67647066    -0.1613627     -0.17833533   
        96   178.8816      -3.7060413      64.46945       63.070436      63.728231     -0.66100841    -0.10774636    -0.19798349   
        97   177.45342     -3.705707       64.802539      63.432976      64.103608     -0.64135533    -0.055216922   -0.21897157   
        98   176.13015     -3.7053866      65.119734      63.781195      64.461        -0.61760927    -0.0039612994  -0.24105338   
        99   174.93597     -3.7050831      65.418093      64.112266      64.797316     -0.58993337     0.04568169    -0.26403839   
       100   173.89356     -3.7047994      65.694944      64.423442      65.109703     -0.55866463     0.093380313   -0.28769395   
Loop time of 12.9886 on 1 procs for 100 steps with 500 atoms

Performance: 0.665 ns/day, 36.080 hours/ns, 7.699 timesteps/s, 3.850 katom-step/s
50.4% CPU use with 1 MPI tasks x 1 OpenMP threads

MPI task timing breakdown:
Section |  min time  |  avg time  |  max time  |%varavg| %total
---------------------------------------------------------------
Pair    | 12.639     | 12.639     | 12.639     |   0.0 | 97.31
Neigh   | 0          | 0          | 0          |   0.0 |  0.00
Comm    | 0.0011791  | 0.0011791  | 0.0011791  |   0.0 |  0.01
Output  | 0.34597    | 0.34597    | 0.34597    |   0.0 |  2.66
Modify  | 0.0013062  | 0.0013062  | 0.0013062  |   0.0 |  0.01
Other   |            | 0.0007204  |            |       |  0.01

Nlocal:            500 ave         500 max         500 min
Histogram: 1 0 0 0 0 0 0 0 0 0
Nghost:           1956 ave        1956 max        1956 min
Histogram: 1 0 0 0 0 0 0 0 0 0
Neighs:              0 ave           0 max           0 min
Histogram: 1 0 0 0 0 0 0 0 0 0
FullNghs:        67000 ave       67000 max       67000 min
Histogram: 1 0 0 0 0 0 0 0 0 0

Total # of neighbors = 67000
Ave neighs/atom = 134
Neighbor list builds = 0
Dangerous builds = 0
Total wall time: 0:00:13
