ITEM: TIMESTEP
0
ITEM: NUMBER OF ATOMS
480
ITEM: BOX BOUNDS pp pp pp
0.0000000000000000e+00 2.4677241413662870e+01
0.0000000000000000e+00 2.5645341551464153e+01
0.0000000000000000e+00 2.4342519000000003e+01
ITEM: ATOMS id type x y z fx fy fz vx vy vz
1 1 0 0 10 5.56222e-14 -5.79536e-14 0.0517534 -2.95399 -0.705164 -3.35106
2 1 0 0 14.3425 5.41789e-14 -3.15303e-14 -0.0517534 2.10534 6.36705 -1.52002
3 1 1.23386 3.56185 10 -1.88738e-15 -1.38778e-14 0.0726207 -0.734734 -8.08169 -0.866669
4 1 1.23386 0.712371 14.3425 -3.55271e-15 -1.41553e-14 -0.0726207 -2.5213 -2.72374 1.31895
5 1 1.23386 2.13711 10 6.66134e-16 2.69229e-14 0.0517534 -4.79075 1.00063 -3.34687
6 1 1.23386 2.13711 14.3425 -4.66294e-15 2.82829e-14 -0.0517534 -6.77752 1.27642 4.23933
7 1 2.46772 1.42474 10 2.5837e-14 -2.22287e-14 0.0726207 -3.44978 2.7371 5.14746
8 1 2.46772 2.84948 14.3425 1.77774e-14 -3.03507e-14 -0.0726207 -2.339 2.53433 4.59815
9 1 2.46772 0 10 2.13579e-14 -6.40425e-14 0.0517534 4.88499 3.69408 3.27192
10 1 2.46772 0 14.3425 2.34535e-14 -1.55154e-14 -0.0517534 -2.63139 1.19915 5.17465
11 1 3.70159 3.56185 10 -1.98066e-14 -1.69163e-14 0.0726207 -4.95584 -0.163606 1.79447
12 1 3.70159 0.712371 14.3425 -1.02722e-14 -1.69639e-14 -0.0726207 -0.0493414 5.58335 -3.30173
13 1 3.70159 2.13711 10 -1.49073e-14 2.85029e-14 0.0517534 7.01361 -5.62962 5.98508
14 1 3.70159 2.13711 14.3425 -6.18863e-16 3.40803e-14 -0.0517534 2.47921 -1.61932 5.05289
15 1 3.23327e-16 1.42474 10 3.43059e-14 -3.68594e-14 0.0726207 -6.8981 3.30989 -3.53829
16 1 3.23327e-16 2.84948 14.3425 3.55271e-14 -2.04281e-14 -0.0726207 -6.69327 6.78485 -0.160591
17 1 4.93545 0 10 -1.85199e-14 -6.02262e-14 0.0517534 -5.69759 5.66927 -1.35991
18 1 4.93545 0 14.3425 -2.09468e-14 -2.45915e-14 -0.0517534 -3.93934 -0.165331 4.51258
19 1 6.16931 3.56185 10 9.84786e-15 -1.93417e-14 0.0726207 -6.96735 -3.65031 7.03723
20 1 6.16931 0.712371 14.3425 4.95264e-15 -8.88178e-15 -0.0726207 -0.51759 -3.61089 3.96008
21 1 6.16931 2.13711 10 4.57273e-15 3.13846e-14 0.0517534 -5.78607 -7.60814 2.34818
22 1 6.16931 2.13711 14.3425 8.51749e-16 2.58682e-14 -0.0517534 3.2864 -1.22011 -5.05563
23 1 7.40317 1.42474 10 3.84744e-14 -2.70894e-14 0.0726207 6.75659 1.25832 1.17748
24 1 7.40317 2.84948 14.3425 4.47787e-14 -3.21913e-14 -0.0726207 -5.26812 -2.93056 -3.97988
25 1 7.40317 0 10 4.91447e-14 -7.06102e-14 0.0517534 4.21236 -1.48365 3.20774
26 1 7.40317 0 14.3425 5.37608e-14 -1.75415e-14 -0.0517534 -3.65547 0.483885 -3.46948
27 1 8.63703 3.56185 10 -4.19617e-14 -9.02707e-15 0.0726207 -7.2398 -2.68152 -2.29992
28 1 8.63703 0.712371 14.3425 -4.68375e-14 -2.07612e-14 -0.0726207 -2.0101 -0.650206 1.13946
29 1 8.63703 2.13711 10 -3.88595e-14 2.4071e-14 0.0517534 5.62546 -7.8417 7.15904
30 1 8.63703 2.13711 14.3425 -4.29587e-14 3.30777e-14 -0.0517534 2.2738 0.961656 7.29655
31 1 4.93545 1.42474 10 -1.35491e-14 -2.9642e-14 0.0726207 -0.428956 -3.66681 -0.878704
32 1 4.93545 2.84948 14.3425 -1.60202e-14 -2.87889e-14 -0.0726207 1.21832 -4.47052 -6.21799
33 1 9.8709 0 10 -7.31359e-15 -5.68434e-14 0.0517534 -4.13787 7.01874 0.520991
34 1 9.8709 0 14.3425 -8.78117e-15 -2.28706e-14 -0.0517534 7.30148 -1.03115 1.26662
35 1 11.1048 3.56185 10 4.58058e-15 -1.77443e-14 0.0726207 3.2273 3.97832 -5.63911
36 1 11.1048 0.712371 14.3425 5.19203e-15 -8.21565e-15 -0.0726207 -5.72954 7.45309 -5.45043
37 1 11.1048 2.13711 10 3.16761e-15 3.11834e-14 0.0517534 -4.22784 0.498449 3.59538
38 1 11.1048 2.13711 14.3425 3.70537e-15 2.39184e-14 -0.0517534 -2.12792 0.0579106 0.527519
39 1 12.3386 1.42474 10 3.75255e-14 -2.39808e-14 0.0726207 6.08457 6.24201 4.81056
40 1 12.3386 2.84948 14.3425 4.39725e-14 -3.01217e-14 -0.0726207 -6.8307 -5.03954 2.52559
41 1 12.3386 0 10 4.66016e-14 -7.39409e-14 0.0517534 5.59469 -1.9384 -1.01456
42 1 12.3386 0 14.3425 5.3119e-14 -1.86517e-14 -0.0517534 0.0581549 5.58965 7.43296
43 1 13.5725 3.56185 10 -3.92801e-14 -9.3829e-15 0.0726207 -5.67574 -7.493 3.94789
44 1 13.5725 0.712371 14.3425 -4.8227e-14 -1.95399e-14 -0.0726207 -4.68066 -3.00846 2.00894
45 1 13.5725 2.13711 10 -3.79106e-14 2.76307e-14 0.0517534 6.92662 6.21501 -5.23219
46 1 13.5725 2.13711 14.3425 -4.38313e-14 3.03091e-14 -0.0517534 2.87083 3.24786 -0.163947
47 1 9.8709 1.42474 10 -2.15973e-15 -2.73115e-14 0.0726207 1.28655 1.20894 -4.70147
48 1 9.8709 2.84948 14.3425 -6.16813e-15 -1.84193e-14 -0.0726207 0.155864 -0.407795 2.3795
49 1 14.8063 0 10 -2.22045e-16 -6.06182e-14 0.0517534 6.68198 -0.661299 4.87187
50 1 14.8063 0 14.3425 1.7833e-15 -1.79856e-14 -0.0517534 -6.44458 2.58874 -0.0868045
51 1 16.0402 3.56185 10 3.64988e-14 -7.27153e-15 0.0726207 -1.72842 -5.11546 -5.51616
52 1 16.0402 0.712371 14.3425 3.94788e-14 -1.67644e-14 -0.0726207 0.549024 -1.2437 -5.2445
53 1 16.0402 2.13711 10 2.86646e-14 2.43416e-14 0.0517534 1.94966 4.74256 2.10605
54 1 16.0402 2.13711 14.3425 3.8301e-14 2.95874e-14 -0.0517534 6.75714 -5.36395 1.87095
55 1 17.2741 1.42474 10 -7.0834e-14 -3.26406e-14 0.0726207 1.62701 2.04754 0.658121
56 1 17.2741 2.84948 14.3425 -7.85897e-14 -2.10387e-14 -0.0726207 -1.7751 2.83723 -7.64235
57 1 17.2741 0 10 -8.28886e-14 -6.4615e-14 0.0517534 3.08408 5.66599 6.856
58 1 17.2741 0 14.3425 -8.7659e-14 -2.79776e-14 -0.0517534 -3.61713 -4.83092 6.30125
59 1 18.5079 3.56185 10 8.24349e-14 -1.42141e-14 0.0726207 7.2347 1.88201 -7.8387
60 1 18.5079 0.712371 14.3425 8.82679e-14 -1.26561e-14 -0.0726207 -0.610983 -4.30861 4.92938
61 1 18.5079 2.13711 10 7.50008e-14 3.50673e-14 0.0517534 -6.57337 -6.52038 -4.42077
62 1 18.5079 2.13711 14.3425 8.12492e-14 3.48951e-14 -0.0517534 -4.74993 5.61463 -0.619835
63 1 14.8063 1.42474 10 -9.12465e-16 -2.4869e-14 0.0726207 -6.1906 -7.63612 7.47733
64 1 14.8063 2.84948 14.3425 1.36837e-15 -2.08097e-14 -0.0726207 -4.79088 -1.15867 -2.41744
65 1 19.7418 0 10 -1.98322e-15 -8.2443e-14 0.0517534 3.79231 6.97941 5.11358
66 1 19.7418 0 14.3425 -1.37303e-15 -1.81482e-14 -0.0517534 -1.23857 2.74148 -0.492186
67 1 20.9757 3.56185 10 -8.13447e-14 -1.21483e-14 0.0726207 -0.29664 1.44675 -1.54564
68 1 20.9757 0.712371 14.3425 -8.65211e-14 -1.71651e-14 -0.0726207 -3.35003 -0.675412 5.39759
69 1 20.9757 2.13711 10 -7.67303e-14 3.32651e-14 0.0517534 1.90744 -7.52786 4.54663
70 1 20.9757 2.13711 14.3425 -8.33777e-14 3.85733e-14 -0.0517534 -5.23672 1.68961 7.23809
71 1 22.2095 1.42474 10 6.77236e-14 -3.54161e-14 0.0726207 -0.260586 5.16893 4.71146
72 1 22.2095 2.84948 14.3425 7.26086e-14 -2.10665e-14 -0.0726207 7.5059 -4.35221 1.18169
73 1 22.2095 0 10 7.49401e-14 -6.25888e-14 0.0517534 2.21323 -2.81133 2.94821
74 1 22.2095 0 14.3425 7.83817e-14 -3.16414e-14 -0.0517534 -7.32693 6.87036 -5.213
75 1 23.4434 3.56185 10 -7.74936e-14 -1.75415e-14 0.0726207 -7.39323 1.87639 -7.28477
76 1 23.4434 0.712371 14.3425 -7.84928e-14 -1.15463e-14 -0.0726207 6.51112 -3.91611 -6.90913
77 1 23.4434 2.13711 10 -6.57252e-14 3.19744e-14 0.0517534 -3.46144 -3.03255 -6.58045
78 1 23.4434 2.13711 14.3425 -6.76126e-14 3.28626e-14 -0.0517534 5.42694 -0.400136 4.31562
79 1 19.7418 1.42474 10 -8.80372e-17 -2.88955e-14 0.0726207 -5.0639 6.07965 1.91873
80 1 19.7418 2.84948 14.3425 3.25261e-17 -3.05035e-14 -0.0726207 -3.66879 -1.39269 -5.35655
81 1 0 4.27422 10 5.28466e-14 1.90958e-14 0.0517534 4.75095 1.43766 4.21368
82 1 0 4.27422 14.3425 5.19584e-14 -4.44089e-15 -0.0517534 -6.76474 -5.77863 5.5539
83 1 1.23386 7.83608 10 -9.21485e-15 3.2474e-15 0.0726207 -1.7993 -7.65793 5.4681
84 1 1.23386 4.98659 14.3425 -7.99361e-15 -3.43892e-14 -0.0726207 -1.56235 -3.15855 -0.581143
85 1 1.23386 6.41134 10 7.10543e-15 6.10068e-14 0.0517534 -5.66493 -0.220923 5.20691
86 1 1.23386 6.41134 14.3425 -3.21965e-15 6.63081e-14 -0.0517534 -1.53621 -7.59009 4.53114
87 1 2.46772 5.69896 10 1.86587e-14 -5.85434e-14 0.0726207 3.88813 0.971842 4.15356
88 1 2.46772 7.12371 14.3425 2.11116e-14 -4.14183e-14 -0.0726207 -2.78442 -3.35766 -3.10812
89 1 2.46772 4.27422 10 2.78874e-14 5.74367e-15 0.0517534 -3.62766 -7.55459 -0.944726
90 1 2.46772 4.27422 14.3425 2.48482e-14 1.27832e-14 -0.0517534 0.964529 -6.86481 7.1887
91 1 3.70159 7.83608 10 -5.17815e-15 1.07619e-14 0.0726207 -6.25216 3.6782 5.81371
92 1 3.70159 4.98659 14.3425 -6.57634e-15 -3.95839e-14 -0.0726207 6.66517 2.03742 4.93687
93 1 3.70159 6.41134 10 -6.68953e-15 5.59111e-14 0.0517534 8.37012 3.76321 -7.64343
94 1 3.70159 6.41134 14.3425 -1.16678e-14 6.9677e-14 -0.0517534 0.791964 -6.95115 -1.78418
95 1 3.23327e-16 5.69896 10 3.04201e-14 -7.03881e-14 0.0726207 -2.94745 -1.76865 -0.638288
96 1 3.23327e-16 7.12371 14.3425 3.65263e-14 -2.79776e-14 -0.0726207 0.637845 1.85925 5.83436
97 1 4.93545 4.27422 10 -1.35881e-14 1.30254e-14 0.0517534 5.09259 6.32009 1.71754
98 1 4.93545 4.27422 14.3425 -1.98999e-14 7.09399e-15 -0.0517534 6.50505 4.97138 -3.2244
99 1 6.16931 7.83608 10 4.66294e-15 -2.68145e-15 0.0726207 7.25698 -4.0665 1.23712
100 1 6.16931 4.98659 14.3425 4.41468e-15 -2.72456e-14 -0.0726207 -1.26453 -5.69891 -1.6547
101 1 6.16931 6.41134 10 2.69229e-15 5.6722e-14 0.0517534 2.03172 5.16556 -4.45651
102 1 6.16931 6.41134 14.3425 1.96544e-15 6.63601e-14 -0.0517534 -3.27971 -7.51381 2.87633
103 1 7.40317 5.69896 10 4.13379e-14 -5.12125e-14 0.0726207 4.9423 0.301858 -4.1057
104 1 7.40317 7.12371 14.3425 3.30291e-14 -4.07313e-14 -0.0726207 -2.71223 5.41039 5.78122
105 1 7.40317 4.27422 10 4.22702e-14 6.83741e-15 0.0517534 -0.616598 -3.58934 1.5897
106 1 7.40317 4.27422 14.3425 5.04352e-14 1.8415e-14 -0.0517534 -2.66426 3.52141 1.52366
107 1 8.63703 7.83608 10 -4.6671e-14 1.23655e-14 0.0726207 -3.28122 -1.13351 -7.45325
108 1 8.63703 4.98659 14.3425 -4.40487e-14 -3.85126e-14 -0.0726207 -4.24788 -3.56233 -3.94341
109 1 8.63703 6.41134 10 -4.34115e-14 5.02584e-14 0.0517534 -0.868856 4.00883 0.0457719
110 1 8.63703 6.41134 14.3425 -3.02848e-14 6.54928e-14 -0.0517534 7.74788 5.4723 0.400645
111 1 4.93545 5.69896 10 -8.70137e-15 -5.21065e-14 0.0726207 -2.63315 3.31644 -4.42242
112 1 4.93545 7.12371 14.3425 -4.68375e-15 -3.70084e-14 -0.0726207 -0.753168 -0.937954 -1.37054
113 1 9.8709 4.27422 10 -4.28672e-15 1.94619e-14 0.0517534 7.70167 5.39482 -2.38603
114 1 9.8709 4.27422 14.3425 -9.59519e-15 5.59622e-15 -0.0517534 -7.08611 -2.82534 5.32847
115 1 11.1048 7.83608 10 5.30825e-15 -2.1593e-15 0.0726207 -2.88926 -6.24506 -4.75123
116 1 11.1048 4.98659 14.3425 4.92797e-15 -2.70504e-14 -0.0726207 3.92808 6.74409 -3.86344
117 1 11.1048 6.41134 10 4.85723e-15 6.03684e-14 0.0517534 -4.04117 -0.0413938 -4.43062
118 1 11.1048 6.41134 14.3425 1.09288e-15 6.22731e-14 -0.0517534 4.04512 -7.15744 1.90667
119 1 12.3386 5.69896 10 4.38271e-14 -5.2347e-14 0.0726207 -0.350008 -8.01618 6.61778
120 1 12.3386 7.12371 14.3425 3.10862e-14 -4.22579e-14 -0.0726207 2.23583 -3.30884 -6.63373
121 1 12.3386 4.27422 10 4.27718e-14 6.52516e-15 0.0517534 -2.54933 1.61309 4.91553
122 1 12.3386 4.27422 14.3425 5.3736e-14 2.14316e-14 -0.0517534 -1.66742 5.90442 4.51132
123 1 13.5725 7.83608 10 -4.64004e-14 6.59932e-15 0.0726207 3.5192 -3.04448 -1.04682
124 1 13.5725 4.98659 14.3425 -4.60111e-14 -3.78725e-14 -0.0726207 -3.25232 -6.74244 3.62946
125 1 13.5725 6.41134 10 -4.59736e-14 5.81098e-14 0.0517534 0.0876697 -5.49376 7.33403
126 1 13.5725 6.41134 14.3425 -2.88207e-14 6.24188e-14 -0.0517534 -4.4032 1.07389 -8.21929
127 1 9.8709 5.69896 10 -5.75383e-15 -6.37138e-14 0.0726207 5.5809 3.93823 2.13482
128 1 9.8709 7.12371 14.3425 4.71845e-16 -3.8386e-14 -0.0726207 -1.03763 4.28545 5.68997
129 1 14.8063 4.27422 10 -2.3254e-15 1.09825e-14 0.0517534 3.00348 -1.84206 1.59706
130 1 14.8063 4.27422 14.3425 -4.30537e-16 1.4465e-14 -0.0517534 -5.77617 0.389929 2.22635
131 1 16.0402 7.83608 10 4.33854e-14 6.64789e-15 0.0726207 0.0776334 0.155812 -2.24159
132 1 16.0402 4.98659 14.3425 4.06196e-14 -3.90356e-14 -0.0726207 -4.2693 1.09274 -8.23707
133 1 16.0402 6.41134 10 4.00513e-14 5.26801e-14 0.0517534 7.81228 -5.69882 -0.161466
134 1 16.0402 6.41134 14.3425 2.72404e-14 6.19158e-14 -0.0517534 -4.57011 0.925775 6.46185
135 1 17.2741 5.69896 10 -8.50888e-14 -7.2181e-14 0.0726207 -3.52106 -6.72705 -7.10584
136 1 17.2741 7.12371 14.3425 -6.68077e-14 -3.51108e-14 -0.0726207 2.60196 1.08523 -7.78604
137 1 17.2741 4.27422 10 -7.94035e-14 1.53922e-14 0.0517534 -3.00525 -6.417 5.65129
138 1 17.2741 4.27422 14.3425 -9.14261e-14 2.97071e-15 -0.0517534 2.76917 6.30977 2.55053
139 1 18.5079 7.83608 10 9.03132e-14 1.23202e-14 0.0726207 -3.18035 -1.57433 0.588926
140 1 18.5079 4.98659 14.3425 9.05222e-14 -3.0096e-14 -0.0726207 8.02953 0.667576 -6.55492
141 1 18.5079 6.41134 10 8.64092e-14 5.46048e-14 0.0517534 6.68419 4.75729 -3.89277
142 1 18.5079 6.41134 14.3425 7.12867e-14 6.95572e-14 -0.0517534 -5.69376 6.62884 -7.3967
143 1 14.8063 5.69896 10 2.74005e-16 -5.87425e-14 0.0726207 -4.67296 -0.334973 5.98676
144 1 14.8063 7.12371 14.3425 -2.35922e-15 -3.74978e-14 -0.0726207 -1.01348 -1.88823 2.31748
145 1 19.7418 4.27422 10 -8.92515e-16 3.55911e-15 0.0517534 -5.66912 -7.08942 3.94997
146 1 19.7418 4.27422 14.3425 3.16717e-15 1.83284e-14 -0.0517534 -1.39767 6.96512 2.56265
147 1 20.9757 7.83608 10 -9.06983e-14 7.77503e-15 0.0726207 -5.48317 -4.04729 7.04902
148 1 20.9757 4.98659 14.3425 -9.43967e-14 -3.39572e-14 -0.0726207 7.42623 3.77287 -3.71563
149 1 20.9757 6.41134 10 -9.07469e-14 5.16254e-14 0.0517534 7.89599 6.57167 -1.40239
150 1 20.9757 6.41134 14.3425 -7.56964e-14 6.77253e-14 -0.0517534 -4.72402 -2.72557 2.1102
151 1 22.2095 5.69896 10 7.11653e-14 -6.78346e-14 0.0726207 -2.82651 2.40611 4.93502
152 1 22.2095 7.12371 14.3425 6.39488e-14 -2.69229e-14 -0.0726207 -7.00327 -5.11956 4.77994
153 1 22.2095 4.27422 10 6.92779e-14 1.18516e-14 0.0517534 1.54384 -1.18615 -4.75449
154 1 22.2095 4.27422 14.3425 7.89369e-14 4.44089e-16 -0.0517534 -3.32383 -4.10886 2.34146
155 1 23.4434 7.83608 10 -8.00471e-14 1.55431e-15 0.0726207 1.25476 5.67162 6.3136
156 1 23.4434 4.98659 14.3425 -7.90479e-14 -2.75335e-14 -0.0726207 -7.04639 -0.923918 -3.18446
157 1 23.4434 6.41134 10 -7.18314e-14 6.43929e-14 0.0517534 -3.05083 4.15028 0.266388
158 1 23.4434 6.41134 14.3425 -6.51701e-14 5.88418e-14 -0.0517534 7.19054 4.47269 -1.17186
159 1 19.7418 5.69896 10 6.08975e-15 -4.84439e-14 0.0726207 2.84991 0.457077 5.57178
160 1 19.7418 7.12371 14.3425 -1.64755e-15 -3.94499e-14 -0.0726207 -2.46141 5.40383 6.47335
161 1 0 8.54845 10 5.88418e-14 1.9984e-15 0.0517534 -0.542284 -6.59632 2.95172
162 1 0 8.54845 14.3425 6.08402e-14 -5.77316e-15 -0.0517534 4.16369 4.60697 5.32214
163 1 1.23386 12.1103 10 -7.21645e-15 1.80411e-15 0.0726207 1.72641 -7.20321 -6.75728
164 1 1.23386 9.26082 14.3425 -9.88098e-15 -2.65898e-14 -0.0726207 -2.95689 -1.86369 2.54614
165 1 1.23386 10.6856 10 1.02141e-14 6.15064e-14 0.0517534 2.33017 -2.52059 -7.59686
166 1 1.23386 10.6856 14.3425 4.32987e-15 7.76879e-14 -0.0517534 6.9658 -0.775756 -1.17928
167 1 2.46772 9.97319 10 1.8336e-14 -5.56014e-14 0.0726207 4.97936 5.0019 2.49571
168 1 2.46772 11.3979 14.3425 1.9304e-14 -8.30187e-14 -0.0726207 -5.30829 3.3334 -4.69269
169 1 2.46772 8.54845 10 2.33633e-14 4.11129e-16 0.0517534 5.17803 0.0416137 -3.95654
170 1 2.46772 8.54845 14.3425 1.88183e-14 9.48894e-15 -0.0517534 0.198494 2.90468 0.821177
171 1 3.70159 12.1103 10 -5.86553e-15 1.14653e-14 0.0726207 -3.0162 -0.211123 -4.41283
172 1 3.70159 9.26082 14.3425 -4.69243e-15 -3.19112e-14 -0.0726207 1.81014 5.41792 5.5888
173 1 3.70159 10.6856 10 -6.92675e-15 5.38812e-14 0.0517534 -1.58549 4.05599 0.30197
174 1 3.70159 10.6856 14.3425 -3.29944e-15 9.24766e-14 -0.0517534 2.987 6.53539 6.83001
175 1 3.23327e-16 9.97319 10 3.29736e-14 -7.26086e-14 0.0726207 3.23926 -1.00871 -1.9198
176 1 3.23327e-16 11.3979 14.3425 2.94209e-14 -7.9714e-14 -0.0726207 -0.137571 -3.41194 3.74394
177 1 4.93545 8.54845 10 -1.73229e-14 3.87873e-16 0.0517534 6.60283 0.243668 0.475643
178 1 4.93545 8.54845 14.3425 -1.82901e-14 2.54408e-15 -0.0517534 5.85353 5.95702 1.18184
179 1 6.16931 12.1103 10 3.35149e-15 -2.2636e-15 0.0726207 4.6609 -6.50852 4.77753
180 1 6.16931 9.26082 14.3425 7.64146e-15 -2.7426e-14 -0.0726207 -7.29993 0.985373 -6.15465
181 1 6.16931 10.6856 10 1.23165e-15 5.84775e-14 0.0517534 -1.39541 -2.61936 -3.55614
182 1 6.16931 10.6856 14.3425 4.95264e-15 8.27498e-14 -0.0517534 -5.69813 -3.44071 -4.33086
183 1 7.40317 9.97319 10 4.33334e-14 -5.29889e-14 0.0726207 0.819775 0.866547 -6.39177
184 1 7.40317 11.3979 14.3425 4.57412e-14 -8.87901e-14 -0.0726207 7.06904 6.92082 2.98448
185 1 7.40317 8.54845 10 4.81004e-14 -9.65894e-15 0.0517534 0.0780469 7.10526 -3.33936
186 1 7.40317 8.54845 14.3425 4.71359e-14 1.50817e-14 -0.0517534 -7.27097 -3.53107 -1.65147
187 1 8.63703 12.1103 10 -4.6671e-14 9.69147e-15 0.0726207 -7.01758 -7.87315 1.60118
188 1 8.63703 9.26082 14.3425 -5.03035e-14 -3.13811e-14 -0.0726207 0.157743 -0.528025 -5.61599
189 1 8.63703 10.6856 10 -4.19092e-14 5.50601e-14 0.0517534 2.4998 -4.23291 -6.45955
190 1 8.63703 10.6856 14.3425 -4.72036e-14 8.98413e-14 -0.0517534 -6.876 -5.69566 5.34951
191 1 4.93545 9.97319 10 -1.28205e-14 -6.05516e-14 0.0726207 2.09269 -0.149135 7.29515
192 1 4.93545 11.3979 14.3425 -1.58545e-14 -8.25289e-14 -0.0726207 7.86692 -6.55413 -1.05772
193 1 9.8709 8.54845 10 -6.31439e-15 1.69309e-15 0.0517534 3.5767 -3.40148 5.22417
194 1 9.8709 8.54845 14.3425 -9.81853e-15 9.57134e-16 -0.0517534 3.2888 7.41156 -6.11173
195 1 11.1048 12.1103 10 5.45397e-15 -3.78755e-15 0.0726207 6.80806 -5.29339 -0.818787
196 1 11.1048 9.26082 14.3425 7.54258e-15 -2.37553e-14 -0.0726207 -6.03002 -3.05058 7.37233
197 1 11.1048 10.6856 10 6.55032e-15 6.01463e-14 0.0517534 5.39781 1.35 4.76831
198 1 11.1048 10.6856 14.3425 6.24327e-15 8.10289e-14 -0.0517534 -3.64943 6.99277 -8.115
199 1 12.3386 9.97319 10 4.35468e-14 -5.10668e-14 0.0726207 -0.75642 -8.04673 0.369539
200 1 12.3386 11.3979 14.3425 4.58522e-14 -9.05942e-14 -0.0726207 -2.44008 -0.684198 0.369599
201 1 12.3386 8.54845 10 4.99878e-14 -1.07275e-14 0.0517534 -1.4307 6.51908 2.20976
202 1 12.3386 8.54845 14.3425 4.89071e-14 1.69205e-14 -0.0517534 6.41052 1.12721 0.464218
203 1 13.5725 12.1103 10 -4.71533e-14 5.64067e-15 0.0726207 4.01883 -5.19514 2.27329
204 1 13.5725 9.26082 14.3425 -4.84352e-14 -3.12146e-14 -0.0726207 -3.4173 -6.14751 2.43868
205 1 13.5725 10.6856 10 -4.7868e-14 5.56603e-14 0.0517534 2.85834 -0.634975 3.5605
206 1 13.5725 10.6856 14.3425 -4.68341e-14 8.74752e-14 -0.0517534 -1.89335 -3.58767 -2.02058
207 1 9.8709 9.97319 10 -4.74794e-15 -6.04655e-14 0.0726207 1.85577 -4.18786 5.91711
208 1 9.8709 11.3979 14.3425 -4.46865e-15 -7.86732e-14 -0.0726207 1.16374 -2.73111 4.20859
209 1 14.8063 8.54845 10 -5.4054e-15 -2.22045e-16 0.0517534 2.84609 -0.411071 -5.13734
210 1 14.8063 8.54845 14.3425 -7.73687e-16 8.39823e-16 -0.0517534 -3.61177 5.97201 -0.556324
211 1 16.0402 12.1103 10 4.55851e-14 5.97265e-15 0.0726207 -0.586074 2.28965 -3.053
212 1 16.0402 9.26082 14.3425 4.06931e-14 -3.01426e-14 -0.0726207 3.63289 6.00408 -0.356722
213 1 16.0402 10.6856 10 4.00791e-14 5.24858e-14 0.0517534 -5.67525 0.750983 0.629719
214 1 16.0402 10.6856 14.3425 3.90087e-14 8.79574e-14 -0.0517534 -3.67677 7.12907 0.538263
215 1 17.2741 9.97319 10 -8.50292e-14 -6.98643e-14 0.0726207 -3.51287 4.11452 1.46001
216 1 17.2741 11.3979 14.3425 -8.04357e-14 -8.50292e-14 -0.0726207 4.69194 -7.87717 -2.5557
217 1 17.2741 8.54845 10 -8.66807e-14 5.41234e-15 0.0517534 -6.18447 0.300757 -6.76334
218 1 17.2741 8.54845 14.3425 -8.31418e-14 -2.98091e-15 -0.0517534 6.19455 0.432951 -3.72262
219 1 18.5079 12.1103 10 8.87476e-14 1.20162e-14 0.0726207 1.41478 0.997095 0.69049
220 1 18.5079 9.26082 14.3425 9.16949e-14 -2.68929e-14 -0.0726207 3.42527 3.14501 -1.33018
221 1 18.5079 10.6856 10 8.5521e-14 5.611e-14 0.0517534 4.48496 0.0913539 -7.92299
222 1 18.5079 10.6856 14.3425 9.00825e-14 8.95521e-14 -0.0517534 -6.766 4.74289 -8.2041
223 1 14.8063 9.97319 10 4.64906e-16 -5.82694e-14 0.0726207 7.24372 -5.01481 6.14583
224 1 14.8063 11.3979 14.3425 1.63758e-15 -8.11434e-14 -0.0726207 -5.91062 6.94001 -7.34407
225 1 19.7418 8.54845 10 -2.8727e-15 -6.8991e-15 0.0517534 8.22099 1.33521 -6.00824
226 1 19.7418 8.54845 14.3425 -1.61199e-15 1.81514e-14 -0.0517534 2.83459 -3.50061 3.23849
227 1 20.9757 12.1103 10 -9.14581e-14 8.12198e-15 0.0726207 6.0528 -4.69553 -0.292636
228 1 20.9757 9.26082 14.3425 -9.03999e-14 -3.20161e-14 -0.0726207 -6.25442 -2.61384 -5.8515
229 1 20.9757 10.6856 10 -8.76313e-14 5.30565e-14 0.0517534 6.34733 0.941445 0.410046
230 1 20.9757 10.6856 14.3425 -8.87831e-14 9.28077e-14 -0.0517534 -3.11647 -5.5845 3.59036
231 1 22.2095 9.97319 10 6.93889e-14 -6.89448e-14 0.0726207 -7.23823 -8.00829 -3.34971
232 1 22.2095 11.3979 14.3425 8.00471e-14 -8.65419e-14 -0.0726207 -6.89926 -0.364196 6.12645
233 1 22.2095 8.54845 10 7.82707e-14 4.46865e-15 0.0517534 1.23574 3.0207 1.4348
234 1 22.2095 8.54845 14.3425 7.81597e-14 -5.32907e-15 -0.0517534 -6.98338 -3.63941 0.0329523
235 1 23.4434 12.1103 10 -8.21565e-14 4.66294e-15 0.0726207 -1.68569 0.0191951 -0.392197
236 1 23.4434 9.26082 14.3425 -8.30447e-14 -2.02061e-14 -0.0726207 0.324656 -0.332532 -0.527649
237 1 23.4434 10.6856 10 -7.56062e-14 6.08402e-14 0.0517534 5.91598 -6.17717 -4.87218
238 1 23.4434 10.6856 14.3425 -7.88258e-14 8.50431e-14 -0.0517534 -0.334619 -2.95435 -7.69911
239 1 19.7418 9.97319 10 3.88838e-15 -5.34781e-14 0.0726207 0.0383334 5.26078 -4.7181
240 1 19.7418 11.3979 14.3425 -1.84401e-15 -9.94713e-14 -0.0726207 5.9311 -5.6789 1.89146
241 1 0 12.8227 10 5.91749e-14 1.77636e-15 0.0517534 -2.32006 3.80376 -7.44699
242 1 0 12.8227 14.3425 5.55112e-14 1.88738e-14 -0.0517534 5.8984 -0.64552 0.664808
243 1 1.23386 16.3845 10 -5.55112e-16 -1.08968e-13 0.0726207 -0.310537 5.60068 2.73942
244 1 1.23386 13.535 14.3425 -3.9968e-15 -3.93574e-14 -0.0726207 1.85667 -5.01741 -5.9202
245 1 1.23386 14.9598 10 6.10623e-15 1.1452e-13 0.0517534 -7.22882 7.58956 6.12529
246 1 1.23386 14.9598 14.3425 -6.66134e-16 3.46945e-14 -0.0517534 -2.33503 5.88624 0.159763
247 1 2.46772 14.2474 10 1.95191e-14 -5.19047e-14 0.0726207 5.9811 -5.29116 4.9755
248 1 2.46772 15.6722 14.3425 2.10006e-14 4.93876e-15 -0.0726207 7.8358 -6.60218 -0.453856
249 1 2.46772 12.8227 10 2.33424e-14 -3.35842e-15 0.0517534 -5.84302 2.00893 1.5953
250 1 2.46772 12.8227 14.3425 2.00673e-14 2.58977e-14 -0.0517534 -3.5377 -1.08626 -5.83108
251 1 3.70159 16.3845 10 -7.64319e-15 -1.07806e-13 0.0726207 0.90678 5.13025 4.2911
252 1 3.70159 13.535 14.3425 -8.5266e-15 -4.57006e-14 -0.0726207 -5.05071 5.98361 4.17058
253 1 3.70159 14.9598 10 -8.64326e-15 1.07159e-13 0.0517534 -2.14181 4.44552 1.91543
254 1 3.70159 14.9598 14.3425 -3.18452e-15 4.54449e-14 -0.0517534 4.32486 3.43488 5.11696
255 1 3.23327e-16 14.2474 10 2.93099e-14 -6.23945e-14 0.0726207 8.10801 4.24668 3.80515
256 1 3.23327e-16 15.6722 14.3425 3.28626e-14 1.26565e-14 -0.0726207 5.23847 1.64675 0.115068
257 1 4.93545 12.8227 10 -1.72293e-14 -6.05207e-15 0.0517534 -0.349313 3.66712 -6.02973
258 1 4.93545 12.8227 14.3425 -1.80203e-14 2.34066e-14 -0.0517534 6.09206 5.39457 -6.47639
259 1 6.16931 16.3845 10 5.39499e-15 -1.12815e-13 0.0726207 -4.75925 7.43924 -0.441042
260 1 6.16931 13.535 14.3425 5.36723e-15 -3.42053e-14 -0.0726207 3.48239 -3.64671 4.16566
261 1 6.16931 14.9598 10 5.51122e-15 1.04219e-13 0.0517534 -5.59082 -6.51875 7.19343
262 1 6.16931 14.9598 14.3425 3.50935e-15 3.28695e-14 -0.0517534 -6.12538 -5.00372 2.30191
263 1 7.40317 14.2474 10 4.1217e-14 -4.25562e-14 0.0726207 2.15823 -8.07346 -5.27214
264 1 7.40317 15.6722 14.3425 5.20417e-14 2.63678e-16 -0.0726207 -2.95525 -5.96837 2.15923
265 1 7.40317 12.8227 10 4.76563e-14 -1.34059e-14 0.0517534 -2.888 -0.970696 3.02556
266 1 7.40317 12.8227 14.3425 4.72608e-14 2.66974e-14 -0.0517534 -6.85571 2.64761 6.63164
267 1 8.63703 16.3845 10 -3.96905e-14 -9.97136e-14 0.0726207 -2.57436 -7.06199 5.46951
268 1 8.63703 13.535 14.3425 -4.52208e-14 -4.07244e-14 -0.0726207 6.26425 -0.880001 5.92084
269 1 8.63703 14.9598 10 -4.2152e-14 1.0434e-13 0.0517534 0.441036 6.33502 -0.883023
270 1 8.63703 14.9598 14.3425 -4.37133e-14 4.58973e-14 -0.0517534 7.87876 2.29861 4.88246
271 1 4.93545 14.2474 10 -1.24423e-14 -5.11713e-14 0.0726207 -2.89772 -5.75506 5.43096
272 1 4.93545 15.6722 14.3425 -1.81331e-14 1.1647e-14 -0.0726207 7.98396 -4.67266 3.80368
273 1 9.8709 12.8227 10 -6.80012e-15 -1.33227e-15 0.0517534 -3.71162 -8.06907 5.13453
274 1 9.8709 12.8227 14.3425 -9.99548e-15 1.99192e-14 -0.0517534 2.2153 0.191468 -5.20628
275 1 11.1048 16.3845 10 4.42354e-15 -1.10318e-13 0.0726207 -5.38528 -6.97603 -7.88706
276 1 11.1048 13.535 14.3425 5.67428e-15 -2.94834e-14 -0.0726207 -5.07734 2.09278 0.286381
277 1 11.1048 14.9598 10 5.16254e-15 1.05388e-13 0.0517534 -5.44927 -4.77513 -6.79518
278 1 11.1048 14.9598 14.3425 1.09635e-15 3.34975e-14 -0.0517534 -5.89278 5.54709 5.39046
279 1 12.3386 14.2474 10 4.35207e-14 -4.03462e-14 0.0726207 -7.04277 -3.45428 5.3789
280 1 12.3386 15.6722 14.3425 4.81559e-14 -9.57567e-16 -0.0726207 4.66337 3.36634 -5.73592
281 1 12.3386 12.8227 10 4.7129e-14 -1.39749e-14 0.0517534 -0.399791 -4.76962 6.52476
282 1 12.3386 12.8227 14.3425 5.15161e-14 2.78458e-14 -0.0517534 7.79409 5.6314 -3.91478
283 1 13.5725 16.3845 10 -4.52728e-14 -1.05366e-13 0.0726207 4.80404 6.15843 -5.28501
284 1 13.5725 13.535 14.3425 -4.54532e-14 -4.04815e-14 -0.0726207 2.57382 3.66165 -2.85548
285 1 13.5725 14.9598 10 -4.64732e-14 1.05294e-13 0.0517534 -4.7368 4.48811 4.54895
286 1 13.5725 14.9598 14.3425 -4.55486e-14 4.23203e-14 -0.0517534 2.16665 6.67614 -4.74716
287 1 9.8709 14.2474 10 -4.22232e-15 -5.33358e-14 0.0726207 -7.00654 3.26852 -1.64201
288 1 9.8709 15.6722 14.3425 -6.77236e-15 1.09218e-14 -0.0726207 -6.60538 -5.63556 1.22122
289 1 14.8063 12.8227 10 -3.17801e-15 -3.27516e-15 0.0517534 0.866965 1.58489 6.43557
290 1 14.8063 12.8227 14.3425 -1.17961e-16 2.4377e-14 -0.0517534 -1.60764 -3.60108 -5.55337
291 1 16.0402 16.3845 10 3.67588e-14 -1.08037e-13 0.0726207 -6.75224 -1.67217 4.40686
292 1 16.0402 13.535 14.3425 3.70225e-14 -3.88023e-14 -0.0726207 7.02881 -3.71414 -3.87963
293 1 16.0402 14.9598 10 3.61933e-14 1.07525e-13 0.0517534 -6.69475 -2.20827 -4.22835
294 1 16.0402 14.9598 14.3425 4.33629e-14 4.23168e-14 -0.0517534 -3.76925 5.83138 -2.77898
295 1 17.2741 14.2474 10 -8.03576e-14 -5.67532e-14 0.0726207 -2.7805 -0.936988 -0.980846
296 1 17.2741 15.6722 14.3425 -8.6986e-14 1.15741e-14 -0.0726207 -3.87482 6.51615 0.498657
297 1 17.2741 12.8227 10 -8.68472e-14 -8.74301e-16 0.0517534 -3.55379 -2.16165 2.88678
298 1 17.2741 12.8227 14.3425 -8.35512e-14 1.90069e-14 -0.0517534 6.21403 -4.83505 0.32765
299 1 18.5079 16.3845 10 8.25199e-14 -1.09726e-13 0.0726207 6.69317 -2.85433 -6.58478
300 1 18.5079 13.535 14.3425 8.88621e-14 -3.28797e-14 -0.0726207 -3.91677 -1.15152 6.6759
301 1 18.5079 14.9598 10 8.68524e-14 1.08977e-13 0.0517534 -3.53635 5.64859 -0.313358
302 1 18.5079 14.9598 14.3425 9.10955e-14 4.2325e-14 -0.0517534 -5.87268 -5.22143 4.23484
303 1 14.8063 14.2474 10 1.97238e-15 -4.86486e-14 0.0726207 0.289679 -1.82375 -7.60885
304 1 14.8063 15.6722 14.3425 -9.71445e-16 7.77156e-15 -0.0726207 -4.43656 -4.9849 1.76096
305 1 19.7418 12.8227 10 -3.33934e-17 -1.33347e-14 0.0517534 7.14099 -4.13264 -1.01138
306 1 19.7418 12.8227 14.3425 -6.00648e-16 3.34847e-14 -0.0517534 5.99729 -2.51094 -3.95
307 1 20.9757 16.3845 10 -8.24306e-14 -1.06788e-13 0.0726207 -0.717885 5.67794 1.69781
308 1 20.9757 13.535 14.3425 -9.26273e-14 -3.54612e-14 -0.0726207 7.67524 4.95533 -3.56823
309 1 20.9757 14.9598 10 -8.4148e-14 1.02619e-13 0.0517534 -2.8864 -5.72939 -6.85052
310 1 20.9757 14.9598 14.3425 -9.47506e-14 4.37046e-14 -0.0517534 -1.08899 -3.12663 -3.05756
311 1 22.2095 14.2474 10 7.30527e-14 -5.7121e-14 0.0726207 6.23856 -4.68874 2.92129
312 1 22.2095 15.6722 14.3425 8.07132e-14 1.32117e-14 -0.0726207 -0.179284 -7.16947 5.62272
313 1 22.2095 12.8227 10 7.67164e-14 3.71925e-15 0.0517534 -1.97286 7.18874 4.99606
314 1 22.2095 12.8227 14.3425 7.93809e-14 1.4988e-14 -0.0517534 4.67584 6.86268 -7.42782
315 1 23.4434 16.3845 10 -8.21565e-14 -1.16795e-13 0.0726207 -4.60802 -2.41062 2.21608
316 1 23.4434 13.535 14.3425 -8.01581e-14 -2.30926e-14 -0.0726207 1.70704 0.0448546 2.96841
317 1 23.4434 14.9598 10 -7.69385e-14 1.11022e-13 0.0517534 -0.57488 0.25563 -4.50245
318 1 23.4434 14.9598 14.3425 -7.52731e-14 3.44169e-14 -0.0517534 1.18477 2.09692 6.5264
319 1 19.7418 14.2474 10 -1.23252e-15 -4.2283e-14 0.0726207 3.70046 0.598822 -5.18878
320 1 19.7418 15.6722 14.3425 8.21392e-16 -4.03453e-15 -0.0726207 3.49908 7.53006 4.46544
321 1 0 17.0969 10 5.4734e-14 4.39648e-14 0.0517534 -6.88779 2.26419 -3.16059
322 1 0 17.0969 14.3425 4.9627e-14 -7.06102e-14 -0.0517534 2.02161 -6.29924 3.88766
323 1 1.23386 20.6587 10 -4.996e-15 -5.5761e-14 0.0726207 -2.7454 2.66056 2.53007
324 1 1.23386 17.8093 14.3425 -3.77476e-15 7.4829e-14 -0.0726207 1.55818 2.09942 1.04829
325 1 1.23386 19.234 10 9.88098e-15 5.54001e-14 0.0517534 -5.2464 -2.38318 3.81599
326 1 1.23386 19.234 14.3425 3.77476e-15 3.2363e-14 -0.0517534 -2.73128 2.21968 -6.26812
327 1 2.46772 18.5216 10 1.91791e-14 -4.89799e-14 0.0726207 -6.80348 -7.02393 -4.74957
328 1 2.46772 19.9464 14.3425 2.35124e-14 -1.6347e-13 -0.0726207 0.12121 3.53984 -5.77921
329 1 2.46772 17.0969 10 1.79787e-14 4.12292e-14 0.0517534 0.978932 -2.50734 -6.82554
330 1 2.46772 17.0969 14.3425 1.96787e-14 -5.94958e-14 -0.0517534 6.74142 -0.0725922 -5.79491
331 1 3.70159 20.6587 10 -3.39355e-15 -5.00596e-14 0.0726207 6.56648 7.45366 4.22353
332 1 3.70159 17.8093 14.3425 -7.33007e-15 7.21975e-14 -0.0726207 0.364722 7.42573 -5.64344
333 1 3.70159 19.234 10 -9.92088e-15 4.83008e-14 0.0517534 0.735542 -4.35202 4.4078
334 1 3.70159 19.234 14.3425 -7.97322e-15 4.43968e-14 -0.0517534 6.9339 1.85483 -5.13541
335 1 3.23327e-16 18.5216 10 3.03091e-14 -5.59552e-14 0.0726207 -2.95531 -6.94227 4.77872
336 1 3.23327e-16 19.9464 14.3425 3.11973e-14 -1.51212e-13 -0.0726207 -3.09387 -6.05534 -1.54421
337 1 4.93545 17.0969 10 -2.21134e-14 4.07986e-14 0.0517534 4.75254 -3.60172 -0.432761
338 1 4.93545 17.0969 14.3425 -1.27511e-14 -6.71534e-14 -0.0517534 0.0345747 5.47991 1.37575
339 1 6.16931 20.6587 10 3.83461e-15 -5.57783e-14 0.0726207 -0.983941 3.24213 -1.37265