LAMMPS (2 Aug 2023 - Update 4)
  using 1 OpenMP thread(s) per MPI task
variable        NSTEPS          equal 100
variable        THERMO_FREQ     equal 1
variable        DUMP_FREQ       equal 1
variable        restart         equal 0
variable        TEMP            equal 300.000000
variable        PRESS           equal 0.000000
variable        TAU_T           equal 0.100000
variable        TAU_P           equal 1.000000

units           metal
boundary        p p p
atom_style      atomic

neighbor        1.0 bin
neigh_modify    delay 10

if "${restart} > 0" then "read_restart lmps.restart.*" else "read_data ../../conf.lmp"
read_data ../../conf.lmp
Reading data file ...
  orthogonal box = (0 0 0) to (4.9354483 4.2742236 24.342519)
  1 by 1 by 1 MPI processor grid
  reading atoms ...
  16 atoms
  read_data CPU = 0.004 seconds

mass   1     12.0096
pair_style   nep
pair_coeff       * * ../../nep.txt C

replicate    5  6  1
Replication is creating a 5x6x1 = 30 times larger system...
  orthogonal box = (0 0 0) to (24.677241 25.645342 24.342519)
  1 by 1 by 1 MPI processor grid
  480 atoms
  replicate CPU = 0.000 seconds

compute    allPe   all   pe
compute    myVirial all pressure NULL virial
variable   N_total equal count(all)
variable   pe_peratom equal c_allPe/v_N_total
variable   W_xx  equal c_myVirial[1]/v_N_total
variable   W_yy  equal c_myVirial[2]/v_N_total
variable   W_zz  equal c_myVirial[3]/v_N_total
variable   W_xy  equal c_myVirial[4]/v_N_total
variable   W_xz  equal c_myVirial[5]/v_N_total
variable   W_yz  equal c_myVirial[6]/v_N_total

thermo_style    custom step temp v_pe_peratom v_W_xx v_W_yy v_W_zz v_W_xy v_W_xz v_W_yz
thermo          ${THERMO_FREQ}
thermo          1

if "${restart} == 0" then "velocity        all create ${TEMP} 35826"
velocity        all create ${TEMP} 35826
velocity        all create 300 35826
fix             1 all nvt temp ${TEMP} ${TEMP} ${TAU_T} #x ${PRESS} ${PRESS} ${TAU_P}
fix             1 all nvt temp 300 ${TEMP} ${TAU_T} 
fix             1 all nvt temp 300 300 ${TAU_T} 
fix             1 all nvt temp 300 300 0.1 
timestep        0.001000
#run             ${NSTEPS}
dump            1 all custom ${DUMP_FREQ} lammps.dump id type x y z fx fy fz vx vy vz
dump            1 all custom 1 lammps.dump id type x y z fx fy fz vx vy vz
dump_modify     1 sort id

run             ${NSTEPS}
run             100
Neighbor list info ...
  update: every = 1 steps, delay = 10 steps, check = yes
  max neighbors/atom: 2000, page size: 100000
  master list distance cutoff = 8
  ghost atom cutoff = 8
  binsize = 4, bins = 7 7 7
  1 neighbor lists, perpetual/occasional/extra = 1 0 0
  (1) pair nep, perpetual
      attributes: full, newton on
      pair build: full/bin/atomonly
      stencil: full/bin/3d
      bin: standard
Per MPI rank memory allocation (min/avg/max) = 3.093 | 3.093 | 3.093 Mbytes
   Step          Temp       v_pe_peratom      v_W_xx         v_W_yy         v_W_zz         v_W_xy         v_W_xz         v_W_yz    
         0   300           -7.9668732     -5.0910821     -5.0910821     -14.042727      1.6444727e-14 -4.3693992e-18 -3.1760364e-16
         1   289.49027     -7.9654982     -4.8331477     -4.6037531     -14.081453     -0.40759503     0.016199807    0.012571128  
         2   260.2004      -7.9616659     -3.9159035     -3.4983842     -14.179853     -0.78866421     0.053960841    0.043576656  
         3   218.64416     -7.9562289     -2.6231542     -2.0632128     -14.331075     -1.1163986      0.10621603     0.088307473  
         4   173.89994     -7.9503774     -1.339445      -0.68318747    -14.525248     -1.3615685      0.163336       0.13988457   
         5   135.27368     -7.9453324     -0.43925886     0.2690619     -14.750693     -1.4975965      0.21475795     0.19018009   
         6   109.85138     -7.9420233     -0.18210782     0.53674844    -14.9947       -1.5077905      0.25079545     0.23101784   
         7   100.71508     -7.9408519     -0.6434322      0.047019527   -15.24382      -1.3907545      0.26428504     0.2554231    
         8   106.42186     -7.941624      -1.6996022     -1.0743748     -15.484052     -1.1611968      0.25171883     0.25863335   
         9   121.86747     -7.9436643     -3.0689811     -2.5437758     -15.701418     -0.84582586     0.21365004     0.2386633    
        10   140.12914     -7.9460611     -4.3948382     -4.0019827     -15.883114     -0.47644137     0.15437244     0.19638196   
        11   154.59227     -7.9479467     -5.3447029     -5.1134325     -16.01906      -0.083657437    0.081071574    0.13523164   
        12   160.71455     -7.9487276     -5.6978001     -5.6536628     -16.103366      0.3058443      0.002712555    0.060797109  
        13   157.03803     -7.9482159     -5.3979381     -5.5615057     -16.135234      0.66806653    -0.071184104   -0.019667572  
        14   145.32626     -7.9466461     -4.5606559     -4.9442385     -16.118998      0.97887445    -0.13187891    -0.097845594  
        15   129.88081     -7.944585      -3.4359963     -4.0378938     -16.063249      1.2131071     -0.17284244    -0.16526587   
        16   116.21877     -7.9427581     -2.3386338     -3.136415      -15.979244      1.3474837     -0.19105047    -0.21451448   
        17   109.42871     -7.9418342     -1.5640165     -2.5098744     -15.879043      1.3662344     -0.18774094    -0.24047327   
        18   112.64674     -7.942224      -1.3120244     -2.3331406     -15.773858      1.2663952     -0.16826978    -0.24117888   
        19   126.11149     -7.9439567     -1.637756      -2.6427491     -15.673068      1.0598007     -0.14101844    -0.21798453   
        20   147.09738     -7.9466715     -2.442117      -3.3322098     -15.58395       0.77043465    -0.11561597    -0.17510267   
        21   170.73136     -7.9497265     -3.5041855     -4.1861319     -15.511924      0.42839446    -0.10095493    -0.11865239   
        22   191.40234     -7.9523849     -4.5456031     -4.9434918     -15.460904      0.063144306   -0.1035067     -0.055659578  
        23   204.31112     -7.9540189     -5.3080851     -5.372541      -15.433491     -0.30082481    -0.12621591     0.0068837595 
        24   206.72511     -7.9542733     -5.6219477     -5.3365585     -15.430896     -0.6445292     -0.16802955     0.062719237  
        25   198.63882     -7.953151      -5.4472253     -4.8324289     -15.452869     -0.95194481    -0.22400913     0.10696299   
        26   182.7103      -7.9510038     -4.8776435     -3.9908759     -15.497556     -1.2065853     -0.28604576     0.13646547   
        27   163.50122     -7.9484323     -4.1081371     -3.0387341     -15.561573     -1.3898746     -0.34414756     0.15020144   
        28   146.20477     -7.9461186     -3.376133      -2.2340376     -15.640102     -1.4829582     -0.3880686      0.14946236   
        29   135.1983      -7.9446363     -2.8939086     -1.7931482     -15.727193     -1.4713903     -0.40914506     0.13774544   
        30   132.85163     -7.9442936     -2.790604      -1.8313118     -15.816014     -1.3502937     -0.40173887     0.1201564    
        31   138.9717      -7.9450608     -3.0800414     -2.3337655     -15.89928      -1.1272748     -0.36418494     0.10231677   
        32   151.05026     -7.9466041     -3.6626544     -3.1652234     -15.970094     -0.82153146    -0.29905074     0.089221493  
        33   165.18858     -7.948409      -4.3595199     -4.1128446     -16.022845     -0.45985962    -0.21291753     0.08420937   
        34   177.34611     -7.9499449     -4.9673314     -4.9481452     -16.054134     -0.071774075   -0.11542634     0.088379576  
        35   184.49576     -7.9508168     -5.316808      -5.4882882     -16.063286      0.31375976    -0.018089302    0.10070446   
        36   185.36444     -7.9508613     -5.3180979     -5.6395024     -16.052674      0.66911055     0.067470586    0.11860374   
        37   180.61379     -7.950169      -4.9809389     -5.4120767     -16.027081      0.96747851     0.13117699     0.13842042   
        38   172.48873     -7.9490371     -4.4065282     -4.9073379     -15.992817      1.1829473      0.16620267     0.15610253   
        39   164.0843      -7.9478729     -3.7552327     -4.2834977     -15.956503      1.2927126      0.17013665     0.16797051   
        40   158.44549     -7.9470754     -3.2003291     -3.7114601     -15.923922      1.2812948      0.14546018     0.17152335   
        41   157.73238     -7.9469267     -2.8809159     -3.3316316     -15.899075      1.1450006      0.099204259    0.16598639   
        42   162.66103     -7.9475185     -2.8665374     -3.221435      -15.883571      0.89459612     0.041696108    0.15257052   
        43   172.36528     -7.948735      -3.1427702     -3.380168      -15.877706      0.55469549    -0.015272096    0.13407264   
        44   184.71202     -7.9502945     -3.6213313     -3.7343457     -15.879431      0.15940118    -0.06062636     0.11422204   
        45   196.964       -7.9518371     -4.1696111     -4.1610026     -15.886091     -0.25375384    -0.085995029    0.096777683  
        46   206.57341     -7.9530293     -4.6505632     -4.5233122     -15.894867     -0.64977204    -0.086958789    0.085014879  
        47   211.85961     -7.9536527     -4.9597669     -4.7081134     -15.90391      -1.0000499     -0.063413844    0.081264551  
        48   212.38505     -7.9536524     -5.048822      -4.655951      -15.911481     -1.2830905     -0.0191134      0.086717782  
        49   208.95467     -7.9531364     -4.9303362     -4.3750584     -15.916488     -1.4828975      0.039444712    0.10140482   
        50   203.27543     -7.9523301     -4.665855      -3.9359433     -15.918167     -1.5869142      0.10447068     0.12375598   
        51   197.39753     -7.9515033     -4.3429589     -3.4497581     -15.916042     -1.5853549      0.16790157     0.15056716   
        52   193.11054     -7.9508902     -4.0491136     -3.0367276     -15.908582     -1.4725685      0.22265252     0.17711763   
        53   191.47744     -7.9506288     -3.8500637     -2.7941542     -15.895062     -1.2501634      0.26354943     0.19715352   
        54   192.6425      -7.9507357     -3.7766179     -2.7738599     -15.876165     -0.93016362     0.28746318     0.20381004   
        55   195.94902     -7.9511226     -3.8230067     -2.9740712     -15.851138     -0.53649038     0.29353132     0.19123349   
        56   200.28844     -7.9516425     -3.9542743     -3.3456434     -15.819364     -0.10351109     0.28302206     0.15585562   
        57   204.52625     -7.9521459     -4.1199483     -3.8096578     -15.781482      0.32806609     0.25934073     0.097814111  
        58   207.84586     -7.9525266     -4.2693282     -4.2780074     -15.737645      0.71669356     0.22769035     0.021305531  
        59   209.91186     -7.9527418     -4.3637477     -4.6724794     -15.68838       1.025622       0.19415541    -0.065934986  
        60   210.84034     -7.9528081     -4.3830912     -4.9367701     -15.634364      1.2275748      0.16461532    -0.15457682   
        61   211.03623     -7.9527798     -4.3268839     -5.0427828     -15.574758      1.3076326      0.14369466    -0.23531044   
        62   210.99426     -7.9527219     -4.2105024     -4.9910626     -15.50768       1.2637304      0.13341735    -0.30064089   
        63   211.15196     -7.9526911     -4.0605032     -4.8086924     -15.431677      1.1048918      0.13295521    -0.3460817    
        64   211.83617     -7.9527291     -3.9096587     -4.5435075     -15.345027      0.84790454     0.13909444    -0.37025558   
        65   213.28479     -7.952866      -3.7931299     -4.2558893     -15.244056      0.51384766     0.14688798    -0.37426772   
        66   215.68655     -7.9531259     -3.7439727     -4.0068463     -15.127742      0.12640704     0.15103277    -0.36076998   
        67   219.18301     -7.9535272     -3.7879586     -3.8449119     -14.99408      -0.28804712     0.14681275    -0.33332599   
        68   223.81573     -7.9540757     -3.9373516     -3.7952682     -14.84232      -0.70000851     0.13099088    -0.2958311    
        69   229.44738     -7.9547541     -4.1843199     -3.8543694     -14.674139     -1.0773774      0.10211079    -0.25188525   
        70   235.70508     -7.9555141     -4.4973511     -3.9903275     -14.490817     -1.3882705      0.060879546   -0.20484784   
        71   241.98485     -7.9562771     -4.8234995     -4.1511005     -14.294358     -1.6055756      0.010331281   -0.15794501   
        72   247.53142     -7.9569447     -5.0969116     -4.2774482     -14.087273     -1.7114538     -0.04490519    -0.11384972   
        73   251.58592     -7.9574176     -5.2531257     -4.3183797     -13.871204     -1.699512      -0.09897081    -0.074378999  
        74   253.57695     -7.9576211     -5.2453829     -4.2460102     -13.649038     -1.5743243     -0.14596519    -0.041092461  
        75   253.30853     -7.9575293     -5.0592787     -4.0651546     -13.422217     -1.3493157     -0.18140431    -0.014990108  
        76   251.07993     -7.9571812     -4.7198237     -3.815009      -13.193433     -1.0438944     -0.20256369     0.0034377614 
        77   247.67693     -7.9566798     -4.2896268     -3.5620361     -12.964752     -0.68110631    -0.20860587     0.014297263  
        78   244.21535     -7.9561712     -3.8562822     -3.3848874     -12.737622     -0.28654159    -0.20003353     0.018285637  
        79   241.87905     -7.9558102     -3.5120971     -3.3554099     -12.511014      0.11235304    -0.17808289     0.016861154  
        80   241.63539     -7.9557231     -3.3325949     -3.5201049     -12.283087      0.48656916    -0.14417944     0.011611691  
        81   244.008       -7.9559778     -3.3587974     -3.886742      -12.054734      0.80676148    -0.099957875    0.0038309103 
        82   248.94756     -7.9565675     -3.5890804     -4.4189497     -11.825098      1.0451599     -0.047392918   -0.0057246431 
        83   255.80659     -7.9574077     -3.9808789     -5.0397011     -11.589686      1.1790532      0.011153748   -0.017003802  
        84   263.41818     -7.9583463     -4.4596175     -5.6439773     -11.34218       1.1939847      0.072700298   -0.030287827  
        85   270.28919     -7.9591882     -4.933891      -6.1195873     -11.079857      1.0861053      0.13421531    -0.045710217  
        86   274.91203     -7.9597363     -5.3132401     -6.3719744     -10.799255      0.86302874     0.19234886    -0.062236901  
        87   276.15844     -7.9598426     -5.5277773     -6.3478423     -10.496351      0.54295484     0.24426942    -0.077666051  
        88   273.66064     -7.9594581     -5.5462563     -6.0507755     -10.168818      0.153071       0.28697857    -0.088951923  
        89   268.04604     -7.9586648     -5.3878612     -5.5445291     -9.8150788     -0.27265369     0.31838109    -0.092577471  
        90   260.90663     -7.957671      -5.1216025     -4.9405966     -9.4347657     -0.69647899     0.33599133    -0.085823946  
        91   254.45684     -7.9567672     -4.8505224     -4.373049      -9.0306408     -1.0809612      0.33736592    -0.067295511  
        92   250.94252     -7.9562482     -4.6819954     -3.9653625     -8.6063596     -1.3936421      0.32124723    -0.037424581  
        93   251.97263     -7.956325      -4.6941973     -3.7998646     -8.166709      -1.6110549      0.28892123     0.0011944316 
        94   258.00062     -7.9570568     -4.9092213     -3.8966025     -7.7138909     -1.7212202      0.24324122     0.043992153  
        95   268.14828     -7.9583272     -5.283714      -4.2098511     -7.2531958     -1.7228398      0.1891515      0.085109339  
        96   280.44148     -7.9598765     -5.7197036     -4.6421514     -6.7875389     -1.6217951      0.13315665     0.11863283   
        97   292.37566     -7.9613757     -6.0936638     -5.0724584     -6.3207043     -1.4276722      0.081349961    0.13950914   
        98   301.62129     -7.9625198     -6.2934571     -5.3901445     -5.8572716     -1.1514489      0.039526053    0.14432586   
        99   306.64995     -7.9631095     -6.2530881     -5.5256522     -5.3992924     -0.80665405     0.01192887     0.13200617   
       100   307.10598     -7.9630998     -5.9723478     -5.4689348     -4.9493097     -0.41197788     1.7940709e-05  0.10362191   
Loop time of 6.14865 on 1 procs for 100 steps with 480 atoms

Performance: 1.405 ns/day, 17.080 hours/ns, 16.264 timesteps/s, 7.807 katom-step/s
99.9% CPU use with 1 MPI tasks x 1 OpenMP threads

MPI task timing breakdown:
Section |  min time  |  avg time  |  max time  |%varavg| %total
---------------------------------------------------------------
Pair    | 6.0407     | 6.0407     | 6.0407     |   0.0 | 98.24
Neigh   | 0.0010121  | 0.0010121  | 0.0010121  |   0.0 |  0.02
Comm    | 0.00041839 | 0.00041839 | 0.00041839 |   0.0 |  0.01
Output  | 0.10534    | 0.10534    | 0.10534    |   0.0 |  1.71
Modify  | 0.00085458 | 0.00085458 | 0.00085458 |   0.0 |  0.01
Other   |            | 0.0003015  |            |       |  0.00

Nlocal:            480 ave         480 max         480 min
Histogram: 1 0 0 0 0 0 0 0 0 0
Nghost:            806 ave         806 max         806 min
Histogram: 1 0 0 0 0 0 0 0 0 0
Neighs:              0 ave           0 max           0 min
Histogram: 1 0 0 0 0 0 0 0 0 0
FullNghs:        64524 ave       64524 max       64524 min
Histogram: 1 0 0 0 0 0 0 0 0 0

Total # of neighbors = 64524
Ave neighs/atom = 134.425
Neighbor list builds = 1
Dangerous builds = 0
Total wall time: 0:00:06
