conf.lmp (written by ASE) 

16 	 atoms 
1  atom types
0.0      4.9354482827325743  xlo xhi
0.0      4.2742235919106921  ylo yhi
0.0      24.342519000000003  zlo zhi


Atoms 

     1   1                       0                       0      10.000000000000002
     2   1                       0                       0      14.342519000000003
     3   1      1.2338620706831436      3.5618529932589102      10.000000000000002
     4   1      1.2338620706831436     0.71237059865178209      14.342519000000003
     5   1      1.2338620706831436      2.1371117959553456      10.000000000000002
     6   1      1.2338620706831436      2.1371117959553456      14.342519000000003
     7   1      2.4677241413662867      1.4247411973035642      10.000000000000002
     8   1      2.4677241413662867      2.8494823946071284      14.342519000000003
     9   1      2.4677241413662867                       0      10.000000000000002
    10   1      2.4677241413662867                       0      14.342519000000003
    11   1      3.7015862120494307      3.5618529932589102      10.000000000000002
    12   1      3.7015862120494307     0.71237059865178209      14.342519000000003
    13   1      3.7015862120494307      2.1371117959553456      10.000000000000002
    14   1      3.7015862120494307      2.1371117959553456      14.342519000000003
    15   1  3.2332724913899029e-16      1.4247411973035642      10.000000000000002
    16   1  3.2332724913899029e-16      2.8494823946071284      14.342519000000003
