conf.lmp (written by ASE) 

12 atoms
2 atom types

-1.1506745374913940e-01  5.1906354537491364e+00  xlo xhi
-1.1506745374913940e-01  5.1906354537491364e+00  ylo yhi
-1.1506745374913940e-01  5.1906354537491364e+00  zlo zhi

Atoms

     1   1  -0.114452   4.98532    -0.0324263
     2   1  -0.0671039  2.61301     2.68997
     3   1   2.62198    0.145886    2.5287
     4   1   2.52394    2.44129     4.90231
     5   2   1.17673    1.50257     3.81382
     6   2   1.16497    4.06096     3.64993
     7   2   1.02437    3.13826     0.906681
     8   2   1.03156    0.633713    1.2799
     9   2   3.43474    1.83747     1.75296
    10   2   3.69606    4.55091     1.12329
    11   2   3.965      3.46457     4.14795
    12   2   3.48201    0.730348    4.32593
