LAMMPS (2 Aug 2023 - Update 4)
  using 1 OpenMP thread(s) per MPI task
variable        NSTEPS          equal 100
variable        THERMO_FREQ     equal 1
variable        DUMP_FREQ       equal 1
variable        restart         equal 0
variable        TEMP            equal 300.000000
variable        PRESS           equal 0.000000
variable        TAU_T           equal 0.050000
variable        TAU_P           equal 0.500000

units           metal
boundary        p p p
atom_style      atomic

neighbor        1.0 bin
neigh_modify    delay 10

lattice bcc 3.165
Lattice spacing in x,y,z = 3.165 3.165 3.165
region box block 0 6 0 6 0 6
create_box 1 box
Created orthogonal box = (0 0 0) to (18.99 18.99 18.99)
  1 by 1 by 1 MPI processor grid
create_atoms 1 box
Created 432 atoms
  using lattice units in orthogonal box = (0 0 0) to (18.99 18.99 18.99)
  create_atoms CPU = 0.001 seconds

mass   1    183.84
pair_style   nep
pair_coeff       * * ../../nep.txt W

compute    allPe   all   pe
compute    myVirial all pressure NULL virial
variable   N_total equal count(all)
variable   pe_peratom equal c_allPe/v_N_total
variable   W_xx  equal c_myVirial[1]/v_N_total
variable   W_yy  equal c_myVirial[2]/v_N_total
variable   W_zz  equal c_myVirial[3]/v_N_total
variable   W_xy  equal c_myVirial[4]/v_N_total
variable   W_xz  equal c_myVirial[5]/v_N_total
variable   W_yz  equal c_myVirial[6]/v_N_total

thermo_style    custom step temp v_pe_peratom v_W_xx v_W_yy v_W_zz v_W_xy v_W_xz v_W_yz
thermo          ${THERMO_FREQ}
thermo          1

if "${restart} == 0" then "velocity        all create ${TEMP} 35826"
velocity        all create ${TEMP} 35826
velocity        all create 300 35826
fix             1 all nvt temp ${TEMP} ${TEMP} ${TAU_T} #iso ${PRESS} ${PRESS} ${TAU_P}
fix             1 all nvt temp 300 ${TEMP} ${TAU_T} 
fix             1 all nvt temp 300 300 ${TAU_T} 
fix             1 all nvt temp 300 300 0.05 
timestep        0.001000
#run             ${NSTEPS}
dump            1 all custom ${DUMP_FREQ} lammps.dump id type x y z fx fy fz vx vy vz
dump            1 all custom 1 lammps.dump id type x y z fx fy fz vx vy vz
dump_modify     1 sort id

run             ${NSTEPS}
run             100
Neighbor list info ...
  update: every = 1 steps, delay = 10 steps, check = yes
  max neighbors/atom: 2000, page size: 100000
  master list distance cutoff = 7
  ghost atom cutoff = 7
  binsize = 3.5, bins = 6 6 6
  1 neighbor lists, perpetual/occasional/extra = 1 0 0
  (1) pair nep, perpetual
      attributes: full, newton on
      pair build: full/bin/atomonly
      stencil: full/bin/3d
      bin: standard
Per MPI rank memory allocation (min/avg/max) = 3.141 | 3.141 | 3.141 Mbytes
   Step          Temp       v_pe_peratom      v_W_xx         v_W_yy         v_W_zz         v_W_xy         v_W_xz         v_W_yz    
         0   300           -13.435769     -111.49174     -111.49174     -111.49174      3.4091413e-14  3.2347761e-14  3.1235431e-14
         1   299.75326     -13.435737     -111.46066     -111.46074     -111.46043     -0.00040188155 -0.0005655795   0.00039150063
         2   299.01423     -13.435641     -111.36755     -111.36787     -111.36661     -0.0016114274  -0.0022720124   0.0015746295 
         3   297.78653     -13.435483     -111.21282     -111.21355     -111.21069     -0.0036327692  -0.0051311865   0.0035596019 
         4   296.07624     -13.435262     -110.99717     -110.99846     -110.99333     -0.0064677138  -0.0091513426   0.006352952  
         5   293.89184     -13.434979     -110.72155     -110.72355     -110.71549     -0.010115714   -0.014336948    0.0099575052 
         6   291.24414     -13.434636     -110.38715     -110.39004     -110.37836     -0.014573851   -0.020688588    0.014372385  
         7   288.1462      -13.434235     -109.99544     -109.99937     -109.9834      -0.019836825   -0.028202867    0.019593055  
         8   284.61325     -13.433775     -109.54812     -109.55327     -109.53231     -0.025896965   -0.036872336    0.025611395  
         9   280.66255     -13.433261     -109.04712     -109.05366     -109.02705     -0.032744244   -0.046685432    0.032415802  
        10   276.31325     -13.432693     -108.4946      -108.50272     -108.46978     -0.040366308   -0.057626439    0.039991331  
        11   271.58629     -13.432075     -107.89292     -107.90282     -107.86288     -0.048748521   -0.06967547     0.048319848  
        12   266.50419     -13.431408     -107.24463     -107.25652     -107.20894     -0.057874018   -0.082808469    0.057380217  
        13   261.09096     -13.430695     -106.55247     -106.56658     -106.51071     -0.067723772   -0.096997239    0.067148495  
        14   255.37185     -13.42994      -105.81935     -105.83591     -105.77115     -0.078276672   -0.11220948     0.077598149  
        15   249.37325     -13.429145     -105.04831     -105.0676      -104.99333     -0.089509608   -0.12840887     0.088700285  
        16   243.12248     -13.428314     -104.24255     -104.26483     -104.18048     -0.10139757    -0.14555514     0.10042388   
        17   236.64758     -13.427449     -103.40535     -103.43093     -103.33596     -0.11391377    -0.16360418     0.11273601   
        18   229.97718     -13.426555     -102.54013     -102.56931     -102.4632      -0.12702972    -0.18250818     0.12560212   
        19   223.14029     -13.425635     -101.65035     -101.68349     -101.56574     -0.1407154     -0.2022158      0.1389862    
        20   216.1661      -13.424692     -100.73957     -100.77702     -100.64718     -0.15493935    -0.22267227     0.15285109   
        21   209.0838      -13.42373      -99.811365     -99.85351      -99.711177     -0.1696688     -0.24381963     0.16715863   
        22   201.92241     -13.422753     -98.869359     -98.916609     -98.7614       -0.18486982    -0.26559689     0.18186988   
        23   194.71057     -13.421765     -97.917183     -97.96997      -97.80155      -0.20050744    -0.28794024     0.19694532   
        24   187.47634     -13.420768     -96.958466     -97.017245     -96.835322     -0.21654576    -0.31078329     0.21234502   
        25   180.24705     -13.419767     -95.996819     -96.062067     -95.866394     -0.23294808    -0.3340572      0.22802876   
        26   173.0491      -13.418766     -95.035821     -95.108038     -94.898415     -0.24967702    -0.35769099     0.24395615   
        27   165.9078      -13.417768     -94.079006     -94.158711     -93.934987     -0.26669458    -0.38161169     0.26008675   
        28   158.84724     -13.416777     -93.129847     -93.217585     -92.979655     -0.28396224    -0.40574455     0.2763801    
        29   151.89019     -13.415796     -92.191754     -92.288083     -92.035896     -0.30144102    -0.43001324     0.29279575   
        30   145.058       -13.414828     -91.268051     -91.373552     -91.107106     -0.31909152    -0.45434005     0.3092933    
        31   138.37069     -13.413878     -90.36198      -90.477245     -90.196592     -0.33687392    -0.47864603     0.32583234   
        32   131.84694     -13.412948     -89.47668      -89.602318     -89.307561     -0.35474804    -0.50285122     0.34237243   
        33   125.50429     -13.412042     -88.615186     -88.751816     -88.443113     -0.37267327    -0.52687482     0.35887304   
        34   119.35939     -13.411162     -87.780419     -87.928668     -87.60623      -0.39060862    -0.55063537     0.37529349   
        35   113.42821     -13.410312     -86.975172     -87.135673     -86.799765     -0.4085127     -0.57405105     0.39159288   
        36   107.72639     -13.409494     -86.202105     -86.375493     -86.026432     -0.42634375    -0.59703994     0.40773008   
        37   102.2695      -13.408711     -85.463729     -85.650637     -85.288795     -0.44405967    -0.6195204      0.42366374   
        38   97.073205     -13.407966     -84.762394     -84.963449     -84.589249     -0.46161814    -0.64141148     0.43935228   
        39   92.153315     -13.40726      -84.100274     -84.316095     -83.930013     -0.47897672    -0.66263339     0.454754     
        40   87.525741     -13.406597     -83.479356     -83.710547     -83.313108     -0.496093      -0.68310804     0.46982718   
        41   83.206252     -13.405977     -82.901424     -83.148573     -82.740349     -0.51292477    -0.70275958     0.4845302    
        42   79.210156     -13.405403     -82.368047     -82.631718     -82.213327     -0.52943016    -0.72151494     0.49882172   
        43   75.551923     -13.404876     -81.880569     -82.161302     -81.733406     -0.54556788    -0.73930438     0.51266079   
        44   72.244804     -13.404398     -81.440102     -81.738407     -81.301706     -0.56129727    -0.75606191     0.52600704   
        45   69.300503     -13.403969     -81.047523     -81.363875     -80.919109     -0.57657845    -0.77172578     0.53882078   
        46   66.728924     -13.40359      -80.703468     -81.038306     -80.586245     -0.59137239    -0.78623879     0.55106314   
        47   64.537997     -13.403261     -80.408334     -80.762056     -80.303502     -0.60564098    -0.7995486      0.56269617   
        48   62.733598     -13.402984     -80.162283     -80.535242     -80.071022     -0.619347      -0.81160799     0.57368294   
        49   61.319523     -13.402757     -79.965242     -80.357744     -79.888706     -0.63245413    -0.82237507     0.58398766   
        50   60.297511     -13.402582     -79.816908     -80.229208     -79.75622      -0.64492698    -0.8318134      0.59357573   
        51   59.667301     -13.402456     -79.716757     -80.149057     -79.672999     -0.65673101    -0.83989214     0.60241391   
        52   59.426699     -13.40238      -79.664046     -80.116492     -79.638253     -0.66783254    -0.84658616     0.61047041   
        53   59.571652     -13.402352     -79.657823     -80.130502     -79.650976     -0.6781987     -0.85187608     0.61771499   
        54   60.096323     -13.402373     -79.696932     -80.189872     -79.709954     -0.68779748    -0.85574837     0.62411918   
        55   60.993159     -13.402439     -79.780025     -80.293189     -79.81377      -0.69659765    -0.85819531     0.62965637   
        56   62.252957     -13.40255      -79.905565     -80.438853     -79.960816     -0.70456884    -0.85921507     0.63430202   
        57   63.864932     -13.402704     -80.071838     -80.625085     -80.149299     -0.71168154    -0.85881165     0.63803384   
        58   65.816779     -13.402899     -80.276963     -80.849935     -80.377255     -0.71790716    -0.85699489     0.64083201   
        59   68.094742     -13.403134     -80.5189       -81.111298     -80.642554     -0.72321808    -0.85378036     0.64267935   
        60   70.683688     -13.403405     -80.795462     -81.406918     -80.942917     -0.72758779    -0.84918936     0.64356156   
        61   73.567196     -13.403711     -81.104327     -81.734404     -81.275923     -0.73099092    -0.84324871     0.64346743   
        62   76.727648     -13.404049     -81.443048     -82.091242     -81.639024     -0.73340343    -0.83599072     0.64238903   
        63   80.146336     -13.404416     -81.809068     -82.474807     -82.029559     -0.73480272    -0.82745291     0.64032194   
        64   83.803575     -13.40481      -82.199733     -82.882381     -82.444767     -0.73516773    -0.81767789     0.63726538   
        65   87.67883      -13.405229     -82.612305     -83.311161     -82.881802     -0.73447919    -0.80671308     0.63322244   
        66   91.750841     -13.405668     -83.04398      -83.75828      -83.337749     -0.73271968    -0.79461047     0.62820018   
        67   95.997754     -13.406126     -83.491901     -84.220821     -83.809641     -0.72987386    -0.78142627     0.62220972   
        68   100.39725     -13.406599     -83.953173     -84.695832     -84.294472     -0.72592861    -0.76722065     0.6152664    
        69   104.9267      -13.407085     -84.424883     -85.180345     -84.78922      -0.72087319    -0.75205733     0.60738975   
        70   109.56324     -13.40758      -84.904111     -85.671389     -85.290857     -0.71469941    -0.73600325     0.59860357   
        71   114.28395     -13.408082     -85.387951     -86.166011     -85.796369     -0.70740176    -0.71912816     0.5889359    
        72   119.06597     -13.408587     -85.873522     -86.661286     -86.302773     -0.69897761    -0.70150424     0.57841895   
        73   123.8866      -13.409093     -86.357989     -87.15434      -86.807132     -0.68942729    -0.6832057      0.56708905   
        74   128.72341     -13.409596     -86.838573     -87.642358     -87.306572     -0.67875426    -0.66430832     0.55498651   
        75   133.5544      -13.410095     -87.312571     -88.122606     -87.798297     -0.6669652     -0.64488912     0.54215549   
        76   138.35805     -13.410586     -87.777365     -88.592442     -88.279603     -0.65407015    -0.62502585     0.52864382   
        77   143.11349     -13.411066     -88.23044      -89.049327     -88.747892     -0.64008257    -0.60479669     0.51450277   
        78   147.80057     -13.411534     -88.669396     -89.490846     -89.20069      -0.62501942    -0.58427977     0.49978684   
        79   152.39997     -13.411987     -89.09196      -89.914712     -89.635652     -0.60890122    -0.56355283     0.48455345   
        80   156.8933      -13.412423     -89.495995     -90.318783     -90.05058      -0.59175211    -0.54269284     0.4688627    
        81   161.26318     -13.41284      -89.879516     -90.70107      -90.443433     -0.57359981    -0.5217756      0.45277701   
        82   165.49337     -13.413235     -90.240695     -91.059745     -90.812333     -0.55447568    -0.50087548     0.43636084   
        83   169.56881     -13.413607     -90.577871     -91.393156     -91.155579     -0.53441465    -0.48006503     0.41968027   
        84   173.47571     -13.413954     -90.889558     -91.699826     -91.471651     -0.51345521    -0.4594147      0.40280271   
        85   177.2016      -13.414276     -91.174451     -91.978464     -91.759218     -0.49163932    -0.43899257     0.38579647   
        86   180.73544     -13.41457      -91.431432     -92.227971     -92.017144     -0.46901231    -0.41886411     0.36873042   
        87   184.06761     -13.414837     -91.659574     -92.447442     -92.244491     -0.44562282    -0.3990919      0.35167358   
        88   187.18997     -13.415074     -91.858143     -92.636167     -92.440522     -0.42152263    -0.37973548     0.33469476   
        89   190.09589     -13.415282     -92.0266       -92.793636     -92.604704     -0.39676652    -0.36085113     0.31786216   
        90   192.78031     -13.415459     -92.164604     -92.919539     -92.736708     -0.37141211    -0.34249177     0.30124302   
        91   195.23965     -13.415606     -92.272006     -93.013762     -92.836406     -0.3455197     -0.32470677     0.28490323   
        92   197.47193     -13.415723     -92.348854     -93.076386     -92.903871     -0.31915202    -0.3075419      0.26890701   
        93   199.47665     -13.415809     -92.395384     -93.107688     -92.939376     -0.29237408    -0.29103922     0.25331654   
        94   201.25484     -13.415866     -92.412019     -93.10813      -92.943384     -0.26525293    -0.27523705     0.2381917    
        95   202.80899     -13.415893     -92.399364     -93.078356     -92.916547     -0.23785739    -0.26016995     0.22358969   
        96   204.14305     -13.415891     -92.358196     -93.019188     -92.859695     -0.21025787    -0.24586869     0.20956481   
        97   205.26231     -13.415861     -92.289462     -92.931614     -92.773835     -0.18252611    -0.23236029     0.19616822   
        98   206.17341     -13.415804     -92.194266     -92.816783     -92.660134     -0.15473489    -0.21966804     0.18344765   
        99   206.88423     -13.415721     -92.073862     -92.675992     -92.519917     -0.12695785    -0.20781156     0.17144723   
       100   207.40385     -13.415613     -91.929642     -92.510679     -92.354649     -0.099269163   -0.19680686     0.16020731   
Loop time of 3.95091 on 1 procs for 100 steps with 432 atoms

Performance: 2.187 ns/day, 10.975 hours/ns, 25.311 timesteps/s, 10.934 katom-step/s
99.7% CPU use with 1 MPI tasks x 1 OpenMP threads

MPI task timing breakdown:
Section |  min time  |  avg time  |  max time  |%varavg| %total
---------------------------------------------------------------
Pair    | 3.8062     | 3.8062     | 3.8062     |   0.0 | 96.34
Neigh   | 0          | 0          | 0          |   0.0 |  0.00
Comm    | 0.0011395  | 0.0011395  | 0.0011395  |   0.0 |  0.03
Output  | 0.14176    | 0.14176    | 0.14176    |   0.0 |  3.59
Modify  | 0.0011588  | 0.0011588  | 0.0011588  |   0.0 |  0.03
Other   |            | 0.0006972  |            |       |  0.02

Nlocal:            432 ave         432 max         432 min
Histogram: 1 0 0 0 0 0 0 0 0 0
Nghost:           1899 ave        1899 max        1899 min
Histogram: 1 0 0 0 0 0 0 0 0 0
Neighs:              0 ave           0 max           0 min
Histogram: 1 0 0 0 0 0 0 0 0 0
FullNghs:        38016 ave       38016 max       38016 min
Histogram: 1 0 0 0 0 0 0 0 0 0

Total # of neighbors = 38016
Ave neighs/atom = 88
Neighbor list builds = 0
Dangerous builds = 0
Total wall time: 0:00:05
