Created from lmp.config
64           atoms
1            atom types
  0.000000000000  11.001880000000 xlo xhi
  0.000000000000  11.115640000000 ylo yhi
  0.000000000000  10.665570000000 zlo zhi
  0.000000000000   0.000000000000   0.000000000000 xy xz yz

Masses

1             28.086000000000 # 14

Atoms # atomic

1            1              1.363308962080   4.169865611400   1.346176248690
2            1              1.369536026160   4.186283411680   6.664968020850
3            1              1.356828854760   9.712112599760   1.336758550380
4            1              1.381935144920   9.712723959960   6.674065752060
5            1              6.868770734760   4.175434547040   1.316984583600
6            1              6.855733506960   4.159139018800   6.662109648090
7            1              6.894394113280   9.721216308920   1.314616827060
8            1              6.883414237040   9.720227016960   6.649396288650
9            1             10.997347225440  11.108703840640   2.671629294870
10           1             10.989161826720  11.106436250080   8.014546586370
11           1              0.018461154640   5.563589017160   2.674039713690
12           1              0.011992049200   5.578550668600   7.996735084470
13           1              5.500147864640   0.005991329960   2.682230871450
14           1              5.499102686040  11.100456035760   8.002462495560
15           1              5.517156771120   5.569424728160   2.650479469560
16           1              5.489806097440   5.547938196040   7.998526900230
17           1              1.374684906000   1.399636926240   3.998095570200
18           1              1.368523853200   1.376405238640   9.324566552760
19           1              1.384300549120   6.944173736440   4.023308977680
20           1              1.374948951120   6.946741449280   9.338613108450
21           1              6.867296482840   1.389910741240   4.008345182970
22           1              6.885273554760   1.391978250280   9.325931745720
23           1              6.864645029760   6.936492829200   4.012579414260
24           1              6.866746388840   6.950976508120   9.320289659190
25           1              0.006964190040   2.789781095920   0.010249612770
26           1              0.015820703440   2.774141390440   5.309331411570
27           1              0.017316959120   8.316732963640  10.660781159070
28           1             10.987841601120   8.350224386960   5.345381038170
29           1              5.506870013320   2.770328725920  -0.004490204970
30           1              5.519247128320   2.783133943200   5.327078920050
31           1              5.515473483480   8.333962205640  10.645326748140
32           1              5.503756481280   8.328026453880   5.331419807040
33           1              4.119510941560   4.149257214840   4.021538493060
34           1              4.127784355320   4.169732223720   9.338431793760
35           1              4.129291612880   9.709667158960   3.988251249090
36           1              4.116485424560   9.733399050360   9.345193765140
37           1              9.632145940000   4.187094853400   3.994341289560
38           1              9.623784511200   4.141531845040   9.338826419850
39           1              9.627822201160   9.742736187960   4.003033729110
40           1              9.633697205080   9.713301973240   9.343497939510
41           1              2.766312707200   0.009815110120   0.015497073210
42           1              2.770273384000  -0.002823372560   5.351012459130
43           1              2.740139234680   5.564122567880   0.017544862650
44           1              2.748885729280   5.567390566040   5.356313247420
45           1              8.267956827520  11.099777981720   0.022323038010
46           1              8.231298563360   0.016729038200   5.319367712940
47           1              8.242267437720   5.539723738080   0.010484255310
48           1              8.265547415800   5.562110637040   5.348783355000
49           1              4.112007659400   1.386098076720   1.322210712900
50           1              4.130061744480   1.379762161920   6.681659637900
51           1              4.117222550520   6.953021785880   1.325922331260
52           1              4.111072499600   6.935892584640   6.668572983510
53           1              9.629120423000   1.404794583200   1.328023448550
54           1              9.627283109040   1.386953981000   6.673916434080
55           1              9.615016012840   6.923154061200   1.324397154750
56           1              9.632784049040   6.949153543160   6.670119491160
57           1              2.763925299240   2.773441105120   2.674157034960
58           1              2.770262382120   2.776086627440   8.000766669930
59           1              2.733109033360   8.317122011040   2.662776871770
60           1              2.729588431760   8.333284151600   7.981707296340
61           1              8.233564950640   2.792137611600   2.681718924090
62           1              8.258330182520   2.784167697720   7.986304157010
63           1              8.266075506040   8.355937825920   2.671725285000
64           1              8.246987244240   8.340998405760   7.990581050580
