ITEM: TIMESTEP
0
ITEM: NUMBER OF ATOMS
250
ITEM: BOX BOUNDS pp pp pp
0.0000000000000000e+00 1.5800000000000001e+01
0.0000000000000000e+00 1.5800000000000001e+01
0.0000000000000000e+00 1.5800000000000001e+01
ITEM: ATOMS id type x y z fx fy fz vx vy vz
1 1 0 0 0 0.213508 -0.259898 -0.534837 0.746609 1.68483 -1.27172
2 2 1.58 1.58 1.58 0.00619834 -0.386795 0.254722 -0.767575 1.36712 -1.11995
3 1 0 0 3.16 0.612767 -0.628684 -0.0470687 -0.0920956 -0.0984503 -0.901699
4 3 1.58 1.58 4.74 0.124201 -0.96793 -0.703947 -0.467536 -0.377218 0.466802
5 1 0 0 6.32 -0.13185 -0.362777 0.0898133 -0.00845152 0.274146 1.12415
6 3 1.58 1.58 7.9 -0.049301 -0.685203 0.704575 -1.59571 -1.6448 0.0425658
7 4 0 0 9.48 -0.4944 -0.0585714 0.400792 -0.455338 1.4953 -1.78912
8 2 1.58 1.58 11.06 -0.27788 -0.377497 -0.306138 -0.360222 1.25285 2.75633
9 2 0 0 12.64 0.0148785 -0.105681 -0.0740386 -1.01464 -0.825411 2.97137
10 2 1.58 1.58 14.22 -0.498616 -0.684086 -0.0253419 0.522221 0.0436687 4.05988
11 2 0 3.16 0 0.145697 -0.303098 -0.0934017 2.3913 -2.76493 1.88641
12 3 1.58 4.74 1.58 -0.704792 -0.0060701 -0.0911919 -0.933871 0.0966906 -1.3198
13 4 0 3.16 3.16 -0.425703 0.222765 -0.121637 0.379139 -1.47577 1.08984
14 3 1.58 4.74 4.74 -0.144271 0.0779164 -0.798769 -1.04519 -0.183635 0.483658
15 3 0 3.16 6.32 -1.36179 0.202489 0.412391 -0.679252 2.65542 -1.12426
16 3 1.58 4.74 7.9 -0.0684828 0.217779 1.22368 0.257767 -0.221678 -1.4059
17 1 0 3.16 9.48 -0.557473 0.212458 0.201235 -0.757335 -0.842978 -0.949402
18 1 1.58 4.74 11.06 0.0404911 0.117654 -0.406437 0.249419 0.740259 1.81729
19 2 0 3.16 12.64 0.0221118 -0.275167 -0.149674 -2.45842 -1.15451 2.75653
20 1 1.58 4.74 14.22 0.00554138 0.431542 -0.029677 -1.35957 2.26215 0.0604823
21 2 0 6.32 0 -0.266228 0.56118 -0.0369695 -1.4839 1.06105 -1.20053
22 2 1.58 7.9 1.58 -0.363225 0.0939019 -0.310341 -2.70997 0.338255 2.27944
23 2 0 6.32 3.16 -0.401184 0.392737 -0.0575907 -1.28146 -2.2688 1.49776
24 4 1.58 7.9 4.74 -0.0478903 0.0871245 -0.0330538 -2.95407 -0.333518 -2.54827
25 3 0 6.32 6.32 -1.23559 0.5099 0.149843 0.0671374 -0.376616 -0.895413
26 3 1.58 7.9 7.9 0.150672 -0.151975 0.455576 2.62011 -0.630939 0.200861
27 4 0 6.32 9.48 -0.773532 -0.300068 0.200064 -0.386825 0.255241 1.50845
28 3 1.58 7.9 11.06 0.390268 -0.0554649 -0.289094 1.07601 0.314964 0.54429
29 3 0 6.32 12.64 -0.247188 0.107866 -0.393456 -1.04659 -0.455283 -1.09894
30 1 1.58 7.9 14.22 0.423683 -0.0454723 0.0604591 -2.04386 1.12831 -0.875724
31 2 0 9.48 0 0.0378363 0.0841286 0.165661 0.0636305 -0.803041 1.02728
32 2 1.58 11.06 1.58 -0.256441 -0.235522 -0.122042 1.57925 2.09553 -1.77095
33 4 0 9.48 3.16 -0.0833829 0.0285424 0.2035 0.772692 1.57523 -0.662199
34 1 1.58 11.06 4.74 0.570871 0.00408593 -0.306931 0.509035 -0.0819696 1.1096
35 3 0 9.48 6.32 -0.399772 0.249336 -0.33675 -1.18972 -1.21856 0.453376
36 2 1.58 11.06 7.9 0.0830946 -0.237626 0.432778 1.91762 0.130914 1.51323
37 1 0 9.48 9.48 -0.570778 0.345386 -0.0257041 0.822576 0.259025 -0.318227
38 4 1.58 11.06 11.06 -0.24337 -0.116446 -0.153479 0.662391 1.72568 2.42632
39 3 0 9.48 12.64 -0.541586 0.364432 0.237642 2.25406 0.0741306 1.99333
40 1 1.58 11.06 14.22 -0.344537 -0.23502 -0.128111 -0.376025 -0.383253 -1.09758
41 2 0 12.64 0 -0.231296 0.00264631 -0.265235 1.58313 -1.5571 1.56022
42 1 1.58 14.22 1.58 0.501678 0.522465 0.0932289 2.66795 -0.964055 -0.708744
43 3 0 12.64 3.16 0.316051 -0.230176 -0.0370665 -0.252408 -0.56106 -1.2389
44 4 1.58 14.22 4.74 0.491085 0.615564 -0.137318 2.62316 -4.57074 0.47669
45 3 0 12.64 6.32 -0.73269 -0.344932 -0.186255 -0.311646 0.96664 -0.812583
46 3 1.58 14.22 7.9 -0.0084255 1.01851 0.102509 -0.328579 0.439836 0.905686
47 1 0 12.64 9.48 -0.284087 -0.0366056 0.483287 0.85363 -3.02995 -1.92063
48 4 1.58 14.22 11.06 -0.482866 0.344246 0.10353 0.968042 4.42063 1.97331
49 1 0 12.64 12.64 0.0434861 0.159275 -0.140625 -0.696088 1.25363 0.267709
50 4 1.58 14.22 14.22 -0.335736 0.414378 -0.118646 0.919719 -0.371544 1.96798
51 4 3.16 0 0 -0.160607 0.117419 0.159813 -2.14664 0.889027 2.2182
52 4 4.74 1.58 1.58 0.0202858 -0.344356 -0.103356 0.364774 3.78383 -0.481196
53 4 3.16 0 3.16 0.224313 -0.341987 -0.239144 -2.27614 -1.85443 0.404703
54 2 4.74 1.58 4.74 -0.486275 -0.82245 -0.408299 1.30826 3.16613 0.330757
55 4 3.16 0 6.32 0.23364 -0.3629 -0.591627 -2.93507 0.733929 2.14321
56 3 4.74 1.58 7.9 0.0479399 -0.587013 0.748097 -0.946344 0.234049 -0.740733
57 2 3.16 0 9.48 -0.513537 -0.118203 0.2236 3.27209 -0.215305 1.36424
58 3 4.74 1.58 11.06 0.209277 -0.105806 -0.413921 0.792182 1.22883 -0.00707237
59 4 3.16 0 12.64 -0.515375 -0.11955 0.451732 2.83009 0.113182 -2.62491
60 1 4.74 1.58 14.22 0.539772 -0.443961 0.415388 -1.03881 -0.0345732 -0.476118
61 3 3.16 3.16 0 0.891265 -0.665708 -0.0731543 2.50215 0.490505 -0.844888
62 4 4.74 4.74 1.58 0.328694 0.2123 -0.0820091 1.25796 -0.533083 4.014
63 2 3.16 3.16 3.16 0.623982 -0.295423 -0.384051 -0.356181 -1.92536 -1.04752
64 1 4.74 4.74 4.74 0.334878 0.801546 -0.114332 0.463248 -0.261385 0.344327
65 3 3.16 3.16 6.32 0.858922 0.0314826 -0.0282769 -0.137345 -0.398359 1.22465
66 2 4.74 4.74 7.9 0.172458 0.449581 0.429233 -0.49462 1.597 -0.702214
67 4 3.16 3.16 9.48 -0.0224228 0.492632 0.340543 1.80285 -1.36691 1.75383
68 1 4.74 4.74 11.06 0.438348 0.13309 -0.082695 -2.6112 0.213527 0.551266
69 3 3.16 3.16 12.64 -0.333228 0.23687 0.0527537 -1.50056 2.06443 -0.699571
70 2 4.74 4.74 14.22 0.612302 0.467298 0.0971065 0.364358 -2.07085 -3.47243
71 2 3.16 6.32 0 -0.0313152 0.0597957 0.0530291 -0.327488 2.68844 -0.580996
72 4 4.74 7.9 1.58 0.537557 -0.157243 -0.299537 2.85516 2.79378 -0.857965
73 3 3.16 6.32 3.16 0.730372 0.381235 -0.387906 -0.875234 -0.818487 2.19719
74 3 4.74 7.9 4.74 0.828464 0.00658296 0.360349 0.440864 0.10831 1.3654
75 1 3.16 6.32 6.32 0.485532 0.236364 -0.0186305 -0.880169 0.123256 2.84161
76 2 4.74 7.9 7.9 0.310513 -0.00882904 -0.0238744 -1.2766 0.344892 -0.536865
77 1 3.16 6.32 9.48 0.234482 -0.461677 -0.0489616 0.930701 1.16841 1.42324
78 3 4.74 7.9 11.06 0.199418 -0.0863148 0.177601 2.20248 -0.301151 -1.72195
79 4 3.16 6.32 12.64 -0.311474 -0.603608 0.110667 1.75764 -2.26376 -3.84092
80 3 4.74 7.9 14.22 -0.108563 -0.181726 0.090561 -0.914584 1.98919 -0.370072
81 1 3.16 9.48 0 -0.229043 -0.118439 0.449881 -0.603789 1.79844 -0.290314
82 2 4.74 11.06 1.58 0.272793 -0.459342 -0.017566 -3.33569 -0.856647 0.556078
83 3 3.16 9.48 3.16 -0.312061 0.469524 -0.115565 0.73004 0.261569 -0.324993
84 4 4.74 11.06 4.74 0.0269658 -0.0706721 0.516012 -1.08664 1.73309 1.22473
85 1 3.16 9.48 6.32 0.183129 0.322756 -0.331881 -1.52928 -2.44054 0.243887
86 1 4.74 11.06 7.9 0.693584 -0.499033 -0.311352 1.68757 2.43165 -0.562679
87 1 3.16 9.48 9.48 0.0793755 0.635641 0.028925 -0.265268 -0.249793 2.2564
88 1 4.74 11.06 11.06 0.0255274 -0.891885 -0.410594 0.664835 -1.22006 -1.41537
89 4 3.16 9.48 12.64 -0.521605 0.507549 -0.0301966 -1.03005 0.478486 -0.592448
90 3 4.74 11.06 14.22 0.197042 -1.05093 0.0960274 -1.37629 1.7892 1.67412
91 3 3.16 12.64 0 -0.620692 0.337274 0.873923 1.79332 -1.85647 -1.31885
92 2 4.74 14.22 1.58 -0.297821 0.806028 0.116646 -3.02433 -1.0585 -0.315616
93 4 3.16 12.64 3.16 -0.20216 0.189533 0.288481 0.296219 1.35043 0.33138
94 1 4.74 14.22 4.74 -0.697515 0.221729 0.1136 -1.08191 1.52977 -1.18073
95 2 3.16 12.64 6.32 0.303146 -0.179693 -0.706277 -1.47199 1.43603 0.361575
96 2 4.74 14.22 7.9 0.189771 0.225159 -0.359307 -1.38029 -2.87771 -0.893335
97 3 3.16 12.64 9.48 -0.386146 -0.685508 0.236934 -0.357547 -0.743161 -1.5638
98 3 4.74 14.22 11.06 -0.191407 1.03981 -0.270098 -0.0687141 -1.93994 2.17463
99 3 3.16 12.64 12.64 -1.54754 -0.0847096 -0.431059 0.119698 -1.63005 0.694875
100 3 4.74 14.22 14.22 -0.19767 1.31868 0.319798 -2.07023 -0.815248 -1.09061
101 2 6.32 0 0 0.0564329 0.691167 0.351617 -1.74978 1.61306 0.795808
102 4 7.9 1.58 1.58 -0.224654 0.0822586 -0.387981 -2.5816 -1.3969 -2.89989
103 1 6.32 0 3.16 -0.249151 0.322242 -0.243287 1.30484 -1.89378 0.0601319
104 1 7.9 1.58 4.74 0.0628088 -0.13735 -0.0235826 -0.18589 -0.651068 0.597816
105 1 6.32 0 6.32 -0.0208737 0.0640852 -0.344148 -1.11482 0.895402 -1.88393
106 4 7.9 1.58 7.9 0.0468379 0.223568 0.481102 -2.96811 -1.79468 -1.78024
107 2 6.32 0 9.48 0.313688 0.547072 -0.301134 -1.61524 -2.88907 0.080625
108 1 7.9 1.58 11.06 0.123915 0.386276 -0.260064 0.358242 0.586054 0.762712
109 1 6.32 0 12.64 0.396268 0.6736 0.718993 0.0351442 2.42939 -1.40974
110 4 7.9 1.58 14.22 -0.400399 -0.212902 0.122898 1.9235 0.534219 1.7845
111 4 6.32 3.16 0 -0.296118 -0.495427 0.146643 3.1917 2.99495 -0.103864
112 2 7.9 4.74 1.58 -0.0300173 0.334275 -0.340407 0.40216 -1.23221 0.0910244
113 3 6.32 3.16 3.16 -0.331028 -0.221021 -1.15227 -0.00652209 1.4645 -1.01071
114 3 7.9 4.74 4.74 0.278413 0.883766 0.036942 2.00863 0.543567 0.705398
115 3 6.32 3.16 6.32 0.176592 0.0880481 0.425159 -0.0731996 1.40489 -1.41759
116 1 7.9 4.74 7.9 -0.0505007 -0.124242 0.30962 -0.59151 -1.31991 -1.55833
117 4 6.32 3.16 9.48 0.573777 0.506638 0.172998 -0.262666 -0.594706 -0.194571
118 4 7.9 4.74 11.06 -0.641506 -0.237761 0.0227707 -0.659621 0.332118 0.75948
119 1 6.32 3.16 12.64 0.384625 0.0891205 0.0340072 0.0437792 -0.898023 -0.792757
120 3 7.9 4.74 14.22 -0.451086 0.281176 0.162413 -1.47094 0.243216 -1.38304
121 2 6.32 6.32 0 -0.114998 -0.355913 0.852999 -0.124124 -1.52324 0.192389
122 4 7.9 7.9 1.58 -0.0283934 0.00633129 0.0330186 -0.3648 2.81052 -0.750583
123 4 6.32 6.32 3.16 -0.505978 -0.0203299 -0.546759 3.75678 -2.75927 -2.10393
124 3 7.9 7.9 4.74 -0.320431 0.257412 -0.166765 -1.88361 -0.0939442 -0.693475
125 4 6.32 6.32 6.32 -0.18802 -0.227845 0.415538 -2.31854 0.340177 0.134652
126 1 7.9 7.9 7.9 -0.672677 0.388558 -0.228903 0.0593647 2.20678 -0.55053
127 2 6.32 6.32 9.48 0.278402 -0.401313 -0.208378 -1.76725 0.672263 -0.00069154
128 1 7.9 7.9 11.06 -0.475327 -0.0192385 0.0823242 0.84858 -1.09799 0.500984
129 4 6.32 6.32 12.64 0.0480915 -0.683626 -0.62858 0.680216 -0.124867 -1.10792
130 3 7.9 7.9 14.22 -0.0875144 -0.306743 0.369036 -2.994 1.33758 -1.85961
131 2 6.32 9.48 0 0.179847 0.149993 1.01361 -3.01274 -1.81683 -0.533378
132 2 7.9 11.06 1.58 0.0173807 -0.717576 -0.379918 -0.890572 -3.21897 -1.20562
133 1 6.32 9.48 3.16 0.0425392 0.148598 -0.14172 0.813183 -0.625776 0.421182
134 4 7.9 11.06 4.74 0.106452 -0.456481 0.46005 5.06661 0.186165 -4.59425
135 4 6.32 9.48 6.32 -0.0624036 0.507745 0.341546 1.88162 -0.919901 2.3102
136 1 7.9 11.06 7.9 0.0275756 -0.265409 -0.291165 0.657764 -0.898503 -1.22657
137 4 6.32 9.48 9.48 0.0210042 0.132534 -0.544918 -1.76936 -1.34149 0.343037
138 3 7.9 11.06 11.06 0.340877 -0.586795 -0.372225 0.572341 0.467428 0.175866
139 2 6.32 9.48 12.64 0.101868 0.0502234 -0.383514 -0.118341 -1.30077 0.738619
140 1 7.9 11.06 14.22 0.143099 -0.203261 0.30704 -0.261346 -1.33714 0.69913
141 1 6.32 12.64 0 0.481214 -0.0773862 0.473637 0.145847 -1.08204 0.439494
142 1 7.9 14.22 1.58 -0.0615588 0.386937 -0.679049 -0.208398 0.248594 0.690417
143 3 6.32 12.64 3.16 -0.326157 -0.283817 0.177531 -0.983444 1.27886 1.25893
144 1 7.9 14.22 4.74 -0.222258 -0.267613 0.516078 -2.60482 0.145734 0.663171
145 2 6.32 12.64 6.32 -0.0215165 -0.599555 -0.490461 0.517589 -0.31852 -0.531341
146 3 7.9 14.22 7.9 -0.10348 -0.212697 0.149455 0.551639 -0.993 1.77132
147 1 6.32 12.64 9.48 -0.257607 -0.73163 -0.390302 -1.43225 0.215544 -0.648792
148 3 7.9 14.22 11.06 0.364793 0.401672 -0.227451 0.967296 -0.00558855 0.090313
149 3 6.32 12.64 12.64 0.243278 -0.0685065 0.41933 2.10993 1.17073 -0.39338
150 2 7.9 14.22 14.22 0.396131 0.540092 0.207206 -0.722184 1.30445 2.15806
151 2 9.48 0 0 0.171689 -0.0451188 -0.136038 1.78901 0.598971 0.8284
152 2 11.06 1.58 1.58 -0.520118 -0.196934 -0.577999 -2.24559 0.558188 -0.90686
153 3 9.48 0 3.16 -0.328165 0.429973 -0.692782 1.54676 0.797279 2.12662
154 2 11.06 1.58 4.74 0.107611 0.604294 0.596342 0.370504 -0.867575 0.611207
155 3 9.48 0 6.32 -0.164775 0.493883 0.0944247 -0.886526 1.52919 -0.940639
156 1 11.06 1.58 7.9 -0.0778432 0.369347 0.273163 2.21122 -1.4474 -0.908153
157 2 9.48 0 9.48 0.648423 0.776543 0.217573 1.84233 -2.46046 -1.79031
158 4 11.06 1.58 11.06 -0.201819 -0.670626 -0.0976975 2.08998 1.56051 -2.55902
159 2 9.48 0 12.64 0.410957 0.352069 0.33154 1.02895 -0.205288 0.131706
160 1 11.06 1.58 14.22 -0.0841253 -0.98802 -0.0118445 0.776016 0.700124 0.176103
161 2 9.48 3.16 0 -0.403572 -0.416918 0.0878489 2.73136 1.0104 0.162886
162 3 11.06 4.74 1.58 -0.43869 1.28968 -0.306535 0.751068 2.13302 1.2614
163 1 9.48 3.16 3.16 -0.191516 -0.581014 -0.0361095 0.147482 -0.0364931 -0.0374703
164 1 11.06 4.74 4.74 0.183638 0.251496 0.572527 4.24936 -0.135911 1.68073
165 1 9.48 3.16 6.32 0.267499 -0.361887 0.495331 0.665613 0.444433 0.817971
166 1 11.06 4.74 7.9 0.244693 -0.16634 -0.687639 -0.165571 -0.211767 -2.7966
167 4 9.48 3.16 9.48 -0.207768 -0.175306 -0.145693 -2.80518 0.942425 -1.80765
168 2 11.06 4.74 11.06 -0.348231 0.114113 -0.227209 -1.57783 -1.53917 0.118592
169 3 9.48 3.16 12.64 -0.0122705 -0.451882 -0.709325 1.42997 -2.03499 0.71758
170 1 11.06 4.74 14.22 -0.326641 0.47838 0.807077 -0.741891 0.804913 -1.76886
171 4 9.48 6.32 0 0.473122 0.147012 0.18578 -2.35179 0.135719 -0.584576
172 4 11.06 7.9 1.58 -0.27696 -0.262587 0.208561 -5.97535 -1.20826 -0.112774
173 2 9.48 6.32 3.16 -0.171751 0.156748 -0.79643 2.23807 -0.802585 -0.970892
174 3 11.06 7.9 4.74 0.304546 0.255703 -0.257796 -0.121184 -0.587805 -1.32833
175 2 9.48 6.32 6.32 0.294574 -0.230968 0.680272 -3.58843 0.47462 -2.04743
176 2 11.06 7.9 7.9 0.291182 0.319826 -0.327011 -0.0461383 3.04625 2.95129
177 3 9.48 6.32 9.48 -0.0114154 -0.354943 0.233597 -0.596185 -1.17284 0.458233
178 2 11.06 7.9 11.06 0.188288 0.668245 -0.00150974 -0.473146 -1.09212 1.08737
179 2 9.48 6.32 12.64 0.364053 -0.0534104 -0.30303 0.747973 -0.986438 -0.125256
180 2 11.06 7.9 14.22 -0.339037 -0.234736 0.304069 -1.86542 -0.269069 -2.95879
181 2 9.48 9.48 0 -0.0326676 -0.240913 0.675408 1.88075 1.57888 -0.698159
182 1 11.06 11.06 1.58 0.0596732 -0.218379 -0.0442042 0.544734 -0.538758 0.0401544
183 1 9.48 9.48 3.16 0.0200052 0.359996 -0.350555 -1.05527 -0.622104 0.478435
184 4 11.06 11.06 4.74 -0.160097 -0.274453 0.327655 3.326 2.31255 1.36309
185 2 9.48 9.48 6.32 -0.0705432 0.835424 0.309414 0.694744 -0.393641 1.6531
186 4 11.06 11.06 7.9 -0.156357 0.189374 0.00537267 -1.19598 -1.52689 -1.02059
187 1 9.48 9.48 9.48 0.365072 0.224767 -0.021566 -0.875302 1.51008 1.34792
188 4 11.06 11.06 11.06 -0.0456734 -0.116561 -0.204236 2.25375 -0.605015 2.67348
189 1 9.48 9.48 12.64 0.526434 -0.088478 -0.569039 0.0664403 1.11108 -1.24847
190 3 11.06 11.06 14.22 0.0333399 0.819765 -0.352763 0.795715 1.19024 -0.391278
191 2 9.48 12.64 0 0.16517 0.248427 0.276629 1.98336 0.486844 0.0398176
192 4 11.06 14.22 1.58 0.181968 -0.0388958 -0.965983 -2.70982 -0.00625127 -0.424224
193 3 9.48 12.64 3.16 -0.0890682 -0.592713 0.0917947 0.409248 0.747106 0.464087
194 3 11.06 14.22 4.74 0.422008 -0.877591 1.03678 1.735 -1.19893 -0.230719
195 4 9.48 12.64 6.32 0.157504 -0.511286 -0.06461 -0.373879 -3.42912 2.92511
196 1 11.06 14.22 7.9 0.307451 -0.570233 -0.0110288 -0.704668 1.20374 0.62327
197 1 9.48 12.64 9.48 0.865683 -0.635432 -0.447417 -0.580397 0.0749632 1.33238
198 2 11.06 14.22 11.06 0.356026 0.145083 0.111629 -0.368589 2.31442 -0.653601
199 2 9.48 12.64 12.64 0.587961 0.205497 0.308973 1.19504 -0.723871 -0.268125
200 4 11.06 14.22 14.22 0.167215 0.205049 0.120257 0.422134 1.66568 -0.198371
201 4 12.64 0 0 -0.237769 -0.349786 -0.28281 1.04562 2.1964 -1.20685
202 3 14.22 1.58 1.58 0.819935 0.117952 -0.527365 -1.02246 1.68457 0.686128
203 3 12.64 0 3.16 -0.319074 -0.471758 -0.712374 2.82315 -0.135607 -0.131858
204 3 14.22 1.58 4.74 0.304683 0.115439 0.49488 0.115814 0.376797 3.16891
205 2 12.64 0 6.32 0.16515 -0.00174047 0.6068 1.43987 2.5849 0.954258
206 4 14.22 1.58 7.9 0.169983 -0.390008 0.0654129 -0.339454 -1.28892 -1.49286
207 2 12.64 0 9.48 0.295041 -0.0610342 0.185847 -0.509468 -2.93302 0.179194
208 1 14.22 1.58 11.06 0.299227 -0.64931 -0.141033 0.611532 0.25732 -1.19964
209 1 12.64 0 12.64 -0.0108261 -0.0372581 0.134937 -0.0279541 -1.66684 0.813024
210 4 14.22 1.58 14.22 0.114439 -0.502677 0.0850862 2.4099 2.93956 -1.77112
211 3 12.64 3.16 0 -0.0082019 -0.362282 -0.313575 1.24706 -0.490273 1.90681
212 4 14.22 4.74 1.58 0.274306 0.396506 0.0845041 -1.49726 -2.78757 -3.76049
213 3 12.64 3.16 3.16 0.0353645 0.398221 0.405625 -0.587776 -0.964173 0.562199
214 1 14.22 4.74 4.74 -0.36066 0.0689627 0.00203102 -1.72057 -1.76613 0.316533
215 4 12.64 3.16 6.32 -0.190576 0.450295 0.255662 -0.460889 1.70656 -1.70486
216 4 14.22 4.74 7.9 -0.149539 0.195509 0.126111 -0.261935 -1.46397 -0.172767
217 3 12.64 3.16 9.48 0.0515484 -0.0657436 -0.181589 1.23627 -0.884722 1.71718
218 4 14.22 4.74 11.06 0.61247 0.0437473 -0.469822 4.01915 0.114577 -0.507663
219 3 12.64 3.16 12.64 -0.230224 -0.460236 -0.479147 -1.27701 -0.0977459 -0.340433
220 3 14.22 4.74 14.22 0.378927 0.190579 0.708032 1.13188 0.112003 -0.829388
221 4 12.64 6.32 0 -0.101832 0.31019 0.0925838 -4.68526 0.631997 -3.68198
222 1 14.22 7.9 1.58 -0.0911643 -0.198305 0.247563 0.00950639 -0.244915 -1.12472
223 1 12.64 6.32 3.16 0.336547 0.193768 -0.201131 0.80057 0.635842 -0.399834
224 1 14.22 7.9 4.74 -0.449472 -0.0204375 -0.505092 -3.29579 -1.80146 1.99877
225 4 12.64 6.32 6.32 0.415644 -0.468494 0.200961 -2.48139 -1.92982 0.813302
226 4 14.22 7.9 7.9 -0.290025 -0.131823 0.350631 0.389319 0.768727 -2.78605
227 2 12.64 6.32 9.48 0.401506 0.0607249 -0.114057 -0.728689 -0.811837 -1.25645
228 4 14.22 7.9 11.06 -0.0672595 0.245927 -0.544595 -2.19344 -4.77346 -2.9009
229 3 12.64 6.32 12.64 0.0839555 0.454998 -0.160324 1.86479 -0.371693 -0.11333
230 4 14.22 7.9 14.22 -0.109717 -0.127318 0.3367 2.47593 2.29392 3.15135
231 3 12.64 9.48 0 0.58796 -0.299046 0.397621 0.675954 0.684689 -1.69608
232 2 14.22 11.06 1.58 0.110901 -0.270575 -0.331963 0.771381 1.87645 0.723153
233 4 12.64 9.48 3.16 0.23486 0.194927 -0.206426 -1.00668 -0.348882 -1.46223
234 2 14.22 11.06 4.74 -0.58142 -0.486707 0.0120293 -0.432862 1.70254 0.474902
235 2 12.64 9.48 6.32 0.231434 0.26945 0.329659 -0.506961 -0.253344 -2.62699
236 4 14.22 11.06 7.9 -0.437511 0.0330788 0.515094 5.15883 -0.224081 -0.0880244
237 2 12.64 9.48 9.48 0.164503 0.123177 0.0534898 2.11413 -1.04817 -0.557303
238 1 14.22 11.06 11.06 -0.231271 0.297294 -0.209912 1.01084 1.91042 -0.412288
239 1 12.64 9.48 12.64 0.328803 -0.244583 -0.240911 0.577526 -1.58709 1.26752
240 4 14.22 11.06 14.22 -0.0975379 0.365587 -0.178295 -2.05738 -3.34897 -3.32645
241 4 12.64 12.64 0 -0.0329972 0.231084 0.228125 -3.53054 3.10648 0.597991
242 2 14.22 14.22 1.58 -0.125615 0.19532 -0.769055 -1.8789 -0.976945 1.2196
243 3 12.64 12.64 3.16 0.00588684 -0.631498 -0.310144 0.0217683 -0.5616 1.28307
244 1 14.22 14.22 4.74 -0.00816124 0.206905 0.696475 -0.581892 -3.26636 -0.667009
245 4 12.64 12.64 6.32 0.0355431 -0.153537 0.158119 0.820677 0.273538 -2.38423
246 1 14.22 14.22 7.9 -0.214075 0.0992638 0.43819 0.0995664 0.920468 1.21872
247 2 12.64 12.64 9.48 0.125508 -0.178745 -0.062867 0.301154 -2.48379 -0.534368
248 4 14.22 14.22 11.06 0.110822 -0.00152714 -0.0313734 -2.56067 1.44433 -2.97273
249 2 12.64 12.64 12.64 0.371301 0.206254 -0.0992908 0.661884 1.60914 -2.89823
250 2 14.22 14.22 14.22 -0.0673105 0.0347891 -0.19706 2.16951 -0.136846 2.22762
ITEM: TIMESTEP
1
ITEM: NUMBER OF ATOMS
250
ITEM: BOX BOUNDS pp pp pp
7.4384098976310042e-05 1.5799925615901024e+01
7.4384098976310042e-05 1.5799925615901024e+01
7.4384098976310042e-05 1.5799925615901024e+01
ITEM: ATOMS id type x y z fx fy fz vx vy vz
1 1 0.000826596 0.00175239 -0.00121137 0.198029 -0.289274 -0.494814 0.757416 1.67043 -1.29875
2 2 1.57929 1.58141 1.57895 0.018548 -0.403641 0.277387 -0.766339 1.32739 -1.09321
3 1 -1.63152e-06 -4.05638e-05 3.15914 0.612558 -0.641052 -0.0301797 -0.0599417 -0.131771 -0.903734
4 3 1.5796 1.57966 4.74048 0.12664 -0.970849 -0.703757 -0.460853 -0.428912 0.429276
5 1 6.24726e-05 0.00033901 6.32114 -0.132491 -0.383229 0.0600106 -0.0153884 0.254572 1.12809
6 3 1.57846 1.5784 7.90006 -0.0326701 -0.64805 0.719241 -1.59791 -1.68036 0.0805268
7 4 -0.000427775 0.00156413 9.47823 -0.485181 -0.0690152 0.423253 -0.548112 1.48323 -1.7111
8 2 1.57969 1.58129 11.0627 -0.277796 -0.386902 -0.321879 -0.388164 1.21443 2.72478
9 2 -0.000939507 -0.000756341 12.6429 0.0267211 -0.0925 -0.100483 -1.01256 -0.835384 2.96263
10 2 1.58056 1.58007 14.224 -0.486557 -0.67948 -0.0756558 0.472692 -0.0248899 4.05484
11 2 0.00247301 3.15726 0.0019561 0.118606 -0.259022 -0.112086 2.40461 -2.79322 1.8761
12 3 1.57911 4.74013 1.57874 -0.686221 0.00314104 -0.0783896 -0.970966 0.0966134 -1.32434
13 4 0.000413208 3.15859 3.16112 -0.432097 0.228424 -0.12823 0.297906 -1.43306 1.06619
14 3 1.57901 4.73985 4.74049 -0.114911 0.067585 -0.80917 -1.05211 -0.179757 0.440793
15 3 -0.000641174 3.16271 6.3189 -1.34987 0.160218 0.432614 -0.751554 2.66511 -1.10174
16 3 1.58032 4.73981 7.89863 -0.0731432 0.215691 1.27491 0.253994 -0.210123 -1.3393
17 1 -0.00069758 3.15921 9.47904 -0.526717 0.222766 0.208572 -0.785793 -0.831565 -0.938657
18 1 1.58031 4.74077 11.0618 0.0212017 0.0996756 -0.443833 0.25104 0.745969 1.795
19 2 -0.00238292 3.15888 12.6427 0.0566655 -0.270135 -0.171269 -2.45448 -1.18194 2.74042
20 1 1.5787 4.7423 14.22 0.0317268 0.412122 -0.0198066 -1.35861 2.28431 0.0591843
21 2 -0.0014229 6.3211 -0.00112801 -0.258237 0.546436 -0.0179163 -1.51028 1.11675 -1.2033
22 2 1.57733 7.90034 1.58232 -0.329641 0.0883613 -0.329023 -2.74484 0.347423 2.24732
23 2 -0.00122724 6.31777 3.16154 -0.411826 0.402542 -0.0810011 -1.32235 -2.22884 1.49081
24 4 1.5771 7.89967 4.73748 -0.0298961 0.0906806 -0.0147735 -2.96146 -0.316682 -2.55282
25 3 0.00010858 6.31965 6.31912 -1.24821 0.518954 0.172559 0.000917118 -0.349189 -0.886826
26 3 1.58268 7.89937 7.90021 0.0957771 -0.143354 0.46546 2.6267 -0.638819 0.225419
27 4 -0.000385696 6.32024 9.48151 -0.75858 -0.302018 0.175978 -0.531924 0.198224 1.54408
28 3 1.58115 7.90031 11.0605 0.367012 -0.056715 -0.286559 1.09621 0.311976 0.528947
29 3 -0.000978793 6.31956 12.6388 -0.233076 0.130873 -0.383575 -1.0594 -0.448922 -1.11967
30 1 1.57803 7.90113 14.2191 0.461046 -0.0688048 0.0714788 -2.02066 1.12533 -0.87227
31 2 0.000139917 9.47919 0.00110999 0.0385357 0.106768 0.166586 0.067471 -0.793451 1.044
32 2 1.58163 11.0621 1.57828 -0.271287 -0.260468 -0.0986181 1.55273 2.07061 -1.78206
33 4 0.00083918 9.48156 3.1594 -0.0986878 0.0161655 0.216975 0.755457 1.57948 -0.622386
34 1 1.58058 11.0599 4.74113 0.559729 -0.00595265 -0.318832 0.538709 -0.0820194 1.09319
35 3 -0.001126 9.47877 6.32046 -0.374328 0.262418 -0.346477 -1.21037 -1.20493 0.435164
36 2 1.58198 11.0601 7.90153 0.0700679 -0.254226 0.403167 1.92533 0.106185 1.55527
37 1 0.000881982 9.48025 9.47967 -0.567083 0.323072 -0.00826836 0.792724 0.276569 -0.319121
38 4 1.5807 11.0617 11.0624 -0.248066 -0.123645 -0.167825 0.615857 1.70295 2.39591
39 3 0.00231401 9.48007 12.642 -0.589655 0.361092 0.180993 2.22392 0.0934747 2.00451
40 1 1.57967 11.0596 14.2188 -0.347275 -0.21792 -0.106729 -0.394183 -0.395142 -1.10375
41 2 0.00164589 12.6384 0.00162127 -0.253065 0.016618 -0.286659 1.5588 -1.55615 1.53249
42 1 1.58274 14.219 1.57935 0.457338 0.534541 0.0964658 2.69314 -0.936327 -0.703773
43 3 -0.000169598 12.6394 3.1588 0.337857 -0.222872 -0.0234504 -0.234977 -0.573144 -1.24053
44 4 1.58273 14.2154 4.74049 0.459606 0.652498 -0.143725 2.71322 -4.4507 0.45008
45 3 -0.000256796 12.6409 6.3192 -0.719916 -0.358548 -0.169541 -0.350377 0.947894 -0.822076
46 3 1.57973 14.2204 7.90091 -0.0137329 1.01598 0.11097 -0.329173 0.494082 0.911386
47 1 0.000920559 12.6369 9.47808 -0.279203 0.017013 0.515111 0.838857 -3.03049 -1.89445
48 4 1.58098 14.2244 11.062 -0.49091 0.313466 0.0883346 0.875833 4.48295 1.9915
49 1 -0.000620563 12.6412 12.6402 0.0496766 0.157648 -0.143783 -0.69365 1.26196 0.260248
50 4 1.58095 14.2196 14.2219 -0.339447 0.415793 -0.128826 0.855786 -0.292929 1.94456
51 4 3.15788 0.000974531 0.00230772 -0.135047 0.110278 0.144328 -2.17466 0.910599 2.24703
52 4 4.7404 1.58381 1.57957 0.0246504 -0.375771 -0.094258 0.369033 3.71567 -0.499915
53 4 3.15779 -0.00181244 3.16043 0.239143 -0.323986 -0.238947 -2.23227 -1.91752 0.35943
54 2 4.74131 1.58318 4.74034 -0.506765 -0.85458 -0.422676 1.25835 3.08184 0.288979
55 4 3.15713 0.000773946 6.3221 0.254811 -0.367182 -0.607991 -2.88884 0.664796 2.02963
56 3 4.73908 1.58028 7.89928 0.0649754 -0.59928 0.754817 -0.943342 0.202423 -0.700671
57 2 3.16329 -0.000146864 9.48136 -0.550638 -0.119461 0.216349 3.21861 -0.227256 1.38637
58 3 4.74083 1.58129 11.06 0.203424 -0.117614 -0.419101 0.803193 1.22288 -0.0292818
59 4 3.16283 0.000176244 12.6374 -0.54326 -0.112559 0.474662 2.72986 0.0912014 -2.53721
60 1 4.73901 1.58001 14.2195 0.553558 -0.441642 0.416624 -1.01013 -0.0578134 -0.454289
61 3 3.16257 3.16052 -0.000772454 0.87362 -0.632826 -0.0637698 2.54923 0.455889 -0.848547
62 4 4.74132 4.73952 1.58407 0.306781 0.224549 -0.115631 1.31815 -0.491718 3.99532
63 2 3.15972 3.1581 3.15898 0.621146 -0.273838 -0.36591 -0.29358 -1.954 -1.08524
64 1 4.7405 4.73979 4.74037 0.318333 0.816753 -0.116871 0.480394 -0.218921 0.338263
65 3 3.15993 3.15965 6.32124 0.846629 0.0373046 -0.0457651 -0.0918746 -0.396529 1.22269
66 2 4.73954 4.74165 7.89932 0.176041 0.430818 0.445359 -0.477103 1.64128 -0.658247
67 4 3.16185 3.15872 9.48177 -0.0501032 0.505038 0.320003 1.796 -1.27244 1.81641
68 1 4.73743 4.74025 11.0605 0.484663 0.12761 -0.108565 -2.587 0.220371 0.546252
69 3 3.15854 3.16212 12.6393 -0.335009 0.196868 0.0783661 -1.51839 2.07602 -0.696082
70 2 4.74042 4.73798 14.2165 0.606343 0.50221 0.135399 0.425634 -2.02212 -3.46077
71 2 3.15972 6.32271 -0.000503946 -0.0314967 0.0415367 0.0570791 -0.330649 2.69356 -0.575466
72 4 4.74294 7.90278 1.57917 0.507381 -0.186998 -0.284704 2.95414 2.76121 -0.913302
73 3 3.15919 6.31921 3.16223 0.740494 0.392589 -0.415901 -0.836028 -0.797864 2.17578
74 3 4.74049 7.90011 4.7414 0.820553 -0.00266393 0.339966 0.484833 0.108415 1.38408
75 1 3.15918 6.32014 6.32286 0.493032 0.229073 -0.0717313 -0.854498 0.135471 2.83927
76 2 4.73877 7.90034 7.89946 0.328752 0.00106344 -0.0143315 -1.24447 0.344505 -0.538791
77 1 3.16098 6.32117 9.48141 0.212816 -0.486593 -0.0654068 0.942448 1.14354 1.42025
78 3 4.74224 7.8997 11.0583 0.17994 -0.076751 0.207013 2.21261 -0.305501 -1.71171
79 4 3.16177 6.31769 12.6361 -0.325888 -0.564724 0.154536 1.6973 -2.37443 -3.81584
80 3 4.73911 7.90198 14.2196 -0.120786 -0.219327 0.0810721 -0.920707 1.97852 -0.3655
81 1 3.15943 9.48178 -0.000204124 -0.24602 -0.15136 0.454837 -0.616261 1.79138 -0.266575
82 2 4.73671 11.0591 1.58061 0.324954 -0.441153 -0.00534955 -3.30566 -0.901931 0.554931
83 3 3.16077 9.48026 3.15972 -0.323581 0.458589 -0.0991966 0.7131 0.286316 -0.330722
84 4 4.73895 11.0617 4.7413 0.0357358 -0.0885049 0.511786 -1.08071 1.71803 1.32208
85 1 3.15852 9.47755 6.32025 0.199444 0.368584 -0.328942 -1.51926 -2.42242 0.226548
86 1 4.74174 11.0624 7.89943 0.668032 -0.548057 -0.320428 1.72331 2.4042 -0.579263
87 1 3.15978 9.47975 9.48224 0.090808 0.650951 0.000303149 -0.260804 -0.216033 2.25719
88 1 4.7407 11.0587 11.0585 0.0285122 -0.873478 -0.378425 0.666259 -1.2664 -1.43609
89 4 3.15897 9.48051 12.6394 -0.502187 0.50312 -0.0286571 -1.12701 0.574204 -0.598027
90 3 4.73866 11.0617 14.2216 0.24263 -1.08225 0.0468602 -1.36458 1.73235 1.67795
91 3 3.16182 12.6381 -0.00122116 -0.6538 0.369347 0.890578 1.75936 -1.83765 -1.27182
92 2 4.73699 14.2189 1.57975 -0.259676 0.821758 0.117723 -3.05239 -0.976669 -0.303835
93 4 3.16032 12.6413 3.1604 -0.2036 0.175658 0.290288 0.257795 1.38502 0.386194
94 1 4.73893 14.2215 4.73885 -0.699787 0.22395 0.135342 -1.11859 1.54148 -1.1742
95 2 3.15859 12.6414 6.32034 0.317969 -0.198001 -0.71076 -1.44078 1.41706 0.290331
96 2 4.73866 14.2171 7.89909 0.204641 0.266638 -0.358072 -1.36047 -2.85301 -0.929412
97 3 3.15968 12.6392 9.47843 -0.383333 -0.670655 0.278767 -0.378066 -0.779325 -1.55006
98 3 4.73996 14.218 11.0621 -0.189981 1.04686 -0.301539 -0.078883 -1.88432 2.15942
99 3 3.16012 12.6383 12.6406 -1.55148 -0.0701141 -0.457855 0.0370757 -1.6342 0.671182
100 3 4.73795 14.2192 14.2189 -0.156775 1.34643 0.335879 -2.0797 -0.744201 -1.07314
101 2 6.31827 0.0017222 0.000887871 0.0553099 0.668922 0.338638 -1.74418 1.68146 0.830521
102 4 7.8974 1.57867 1.57712 -0.20566 0.0902594 -0.36448 -2.62238 -1.38057 -2.97118
103 1 6.32131 -0.00181094 3.1601 -0.28015 0.3617 -0.258571 1.29096 -1.87585 0.0469628
104 1 7.89982 1.5794 4.74063 0.0624151 -0.109147 -0.047623 -0.182606 -0.657543 0.595954
105 1 6.3189 0.000971468 6.31812 -0.0268225 0.0437706 -0.311701 -1.11608 0.898241 -1.90115
106 4 7.89704 1.57829 7.89827 0.063695 0.229623 0.497413 -2.95767 -1.75178 -1.68759
107 2 6.31842 -0.00278718 9.48005 0.331313 0.571604 -0.309593 -1.58283 -2.83286 0.0499189
108 1 7.90036 1.58066 11.0607 0.133117 0.367273 -0.286014 0.36499 0.605834 0.748389
109 1 6.32006 0.00252145 12.6386 0.402888 0.63862 0.74962 0.0561158 2.46384 -1.37122
110 4 7.90189 1.58057 14.2217 -0.410879 -0.217235 0.113605 1.84669 0.493489 1.80691
111 4 6.32318 3.16299 -1.55926e-05 -0.318124 -0.51761 0.139273 3.13356 2.89904 -0.076788
112 2 7.9004 4.73881 1.58013 -0.0174521 0.345174 -0.346503 0.399778 -1.19805 0.056488
113 3 6.32 3.1615 3.159 -0.302888 -0.241914 -1.1296 -0.0234231 1.45217 -1.07156
114 3 7.90202 4.7406 4.74074 0.268835 0.867412 0.0138331 2.02324 0.59026 0.706759
115 3 6.31995 3.16145 6.31861 0.173911 0.0758084 0.441921 -0.0638555 1.40927 -1.39448
116 1 7.89941 4.73871 7.89845 -0.0596741 -0.0933463 0.328629 -0.594406 -1.32563 -1.54159
117 4 6.31981 3.1595 9.47981 0.571168 0.512851 0.169907 -0.15424 -0.498163 -0.162099
118 4 7.89928 4.74034 11.0607 -0.640923 -0.243282 0.0155443 -0.781076 0.286565 0.763116
119 1 6.32007 3.15915 12.6392 0.388586 0.102329 0.0419497 0.0640701 -0.893008 -0.790772
120 3 7.89852 4.74028 14.2186 -0.423807 0.273584 0.166583 -1.49428 0.258009 -1.37428
121 2 6.31988 6.31847 0.000309661 -0.127186 -0.337638 0.838757 -0.136302 -1.55812 0.277451