LAMMPS (2 Aug 2023 - Update 4)
  using 1 OpenMP thread(s) per MPI task
# =========================================
# LAMMPS NEP Benchmark: WMoTaV refractory HEA
# Potential: NEP (nep)
# Elements: W Mo Ta V
# Structure: BCC random solid solution (a ~ 3.16 A)
# Atoms: 128000 (250 x 8x8x8)
# =========================================

# --- Simulation Parameters ---
variable        NSTEPS     equal 100
variable        THERMO     equal 1
variable        TEMP       equal 300
variable        PRES       equal 0
variable        TAU_T      equal 0.1
variable        TAU_P      equal 1.0
variable        TSTEP      equal 0.001

# --- System Setup ---
units           metal
boundary        p p p
atom_style      atomic

read_data       ../../data.lmp
Reading data file ...
  orthogonal box = (0 0 0) to (15.8 15.8 15.8)
  1 by 1 by 1 MPI processor grid
  reading atoms ...
  250 atoms
  read_data CPU = 0.004 seconds
#replicate       8 8 8

# --- Potential ---
mass            1 183.84
mass            2 95.95
mass            3 180.9479
mass            4 50.9415

pair_style      nep
pair_coeff      * * ../../nep.txt W Mo Ta V

# --- Neighbor Settings ---
neighbor        1.0 bin
neigh_modify    every 10 delay 0 check no

# --- Output ---
thermo          ${THERMO}
thermo          1
compute    allPe   all   pe
compute    myVirial all pressure NULL virial
variable   N_total equal count(all)
variable   pe_peratom equal c_allPe/v_N_total
variable   W_xx  equal c_myVirial[1]/v_N_total
variable   W_yy  equal c_myVirial[2]/v_N_total
variable   W_zz  equal c_myVirial[3]/v_N_total
variable   W_xy  equal c_myVirial[4]/v_N_total
variable   W_xz  equal c_myVirial[5]/v_N_total
variable   W_yz  equal c_myVirial[6]/v_N_total

thermo_style    custom step temp v_pe_peratom v_W_xx v_W_yy v_W_zz v_W_xy v_W_xz v_W_yz

# --- Dynamics ---
velocity        all create ${TEMP} 12345 dist gaussian mom yes rot yes
velocity        all create 300 12345 dist gaussian mom yes rot yes
fix             1 all npt temp ${TEMP} ${TEMP} ${TAU_T} iso ${PRES} ${PRES} ${TAU_P}
fix             1 all npt temp 300 ${TEMP} ${TAU_T} iso ${PRES} ${PRES} ${TAU_P}
fix             1 all npt temp 300 300 ${TAU_T} iso ${PRES} ${PRES} ${TAU_P}
fix             1 all npt temp 300 300 0.1 iso ${PRES} ${PRES} ${TAU_P}
fix             1 all npt temp 300 300 0.1 iso 0 ${PRES} ${TAU_P}
fix             1 all npt temp 300 300 0.1 iso 0 0 ${TAU_P}
fix             1 all npt temp 300 300 0.1 iso 0 0 1
timestep        ${TSTEP}
timestep        0.001
dump            1 all custom 1 lammps.dump id type x y z fx fy fz vx vy vz
dump_modify     1 sort id

# --- Run ---
run             ${NSTEPS}
run             100
Neighbor list info ...
  update: every = 10 steps, delay = 0 steps, check = no
  max neighbors/atom: 2000, page size: 100000
  master list distance cutoff = 7
  ghost atom cutoff = 7
  binsize = 3.5, bins = 5 5 5
  1 neighbor lists, perpetual/occasional/extra = 1 0 0
  (1) pair nep, perpetual
      attributes: full, newton on
      pair build: full/bin/atomonly
      stencil: full/bin/3d
      bin: standard
Per MPI rank memory allocation (min/avg/max) = 2.621 | 2.621 | 2.621 Mbytes
   Step          Temp       v_pe_peratom      v_W_xx         v_W_yy         v_W_zz         v_W_xy         v_W_xz         v_W_yz    
         0   300           -11.775859     -206.67793     -210.92145     -209.52948      1.4095067     -1.5711912      0.14745858   
         1   299.23509     -11.775775     -206.16848     -210.61145     -209.17028      1.4500508     -1.6025658      0.095065875  
         2   298.15149     -11.775676     -205.05437     -209.68679     -208.2013       1.4877763     -1.6318458      0.042907838  
         3   296.75405     -11.775564     -203.33866     -208.15048     -206.62567      1.522729      -1.6590684     -0.0091549686 
         4   295.04906     -11.775439     -201.026       -206.00713     -204.44811      1.554968      -1.6842761     -0.061250827  
         5   293.04429     -11.775299     -198.12262     -203.26293     -201.67492      1.5845646     -1.7075159     -0.11349391   
         6   290.74891     -11.775145     -194.63634     -199.92566     -198.31398      1.6115992     -1.7288391     -0.16598151   
         7   288.1735      -11.774977     -190.57656     -196.00469     -194.37476      1.6361598     -1.7483009     -0.21879143   
         8   285.33006     -11.774793     -185.95428     -191.51098     -189.86833      1.6583391     -1.7659594     -0.27197968   
         9   282.23193     -11.774593     -180.78211     -186.45712     -184.80733      1.6782322     -1.7818761     -0.32557834   
        10   278.8938      -11.774376     -175.07424     -180.85724     -179.20602      1.6959344     -1.7961148     -0.37959377   
        11   275.33168     -11.774143     -168.84646     -174.72712     -173.08024      1.7115386     -1.8087417     -0.43400508   
        12   271.56284     -11.773891     -162.11617     -168.0841      -166.44739      1.7251333     -1.8198246     -0.48876291   
        13   267.60576     -11.773621     -154.90235     -160.9471      -159.32649      1.7368004     -1.8294329     -0.54378858   
        14   263.48012     -11.773331     -147.22556     -153.33663     -151.7381       1.7466134     -1.8376369     -0.59897353   
        15   259.20671     -11.773022     -139.10792     -145.27476     -143.70434      1.7546356     -1.8445076     -0.65417917   
        16   254.80734     -11.772694     -130.57309     -136.78507     -135.24885      1.7609192     -1.850116      -0.70923701   
        17   250.30481     -11.772345     -121.64623     -127.89267     -126.39678      1.7655039     -1.8545328     -0.76394924   
        18   245.7228      -11.771976     -112.35397     -118.62411     -117.17471      1.7684163     -1.8578276     -0.81808962   
        19   241.08575     -11.771587     -102.72437     -109.00738     -107.61066      1.7696697     -1.8600686     -0.87140477   
        20   236.41879     -11.771179     -92.786845     -99.071833     -97.733993      1.7692641     -1.8613216     -0.92361577   
        21   231.74759     -11.770753     -82.572099     -88.848105     -87.575356      1.7671864     -1.8616497     -0.97442019   
        22   227.09823     -11.770309     -72.112063     -78.368072     -77.166616      1.7634116     -1.8611125     -1.0234944    
        23   222.49709     -11.76985      -61.439795     -67.664745     -66.540761      1.7579032     -1.8597651     -1.0704963    
        24   217.97063     -11.769375     -50.589385     -56.772173     -55.731808      1.7506151     -1.8576577     -1.1150681    
        25   213.54531     -11.768888     -39.59584      -45.725345     -44.774692      1.7414932     -1.8548346     -1.15684      
        26   209.24732     -11.768391     -28.494968     -34.560065     -33.705147      1.7304771     -1.8513335     -1.195433     
        27   205.10249     -11.767886     -17.323247     -23.312825     -22.559577      1.7175022     -1.847185      -1.2304637    
        28   201.13602     -11.767375     -6.1176584     -12.02067      -11.374916      1.7025105     -1.8424191     -1.2615501    
        29   197.37232     -11.766863      5.0844853     -0.72104659    -0.18847948     1.6854614     -1.8370705     -1.2883235    
        30   193.83481     -11.766351      16.245483      10.548328      10.962174      1.6662584     -1.8311119     -1.3104004    
        31   190.54571     -11.765844      27.327776      21.749658      22.039438      1.6448401     -1.824537      -1.3274172    
        32   187.52578     -11.765345      38.295525      32.845382      33.005964      1.6207236     -1.8169045     -1.3391676    
        33   184.79418     -11.764857      49.11182       43.798136      43.824636      1.5935633     -1.8078864     -1.3454299    
        34   182.36825     -11.764385      59.73779       54.570642      54.458453      1.5639951     -1.798113      -1.345683     
        35   180.26336     -11.763931      70.137398      65.12791       64.871442      1.5313473     -1.7873589     -1.3403105    
        36   178.49268     -11.763501      80.275506      75.432662      75.028127      1.4955666     -1.7755784     -1.3290099    
        37   177.06705     -11.763096      90.117965      85.451219      84.894266      1.4580528     -1.7632671     -1.3113089    
        38   175.9948      -11.762722      99.631053      95.150259      94.436492      1.4187938     -1.7501773     -1.2871135    
        39   175.28162     -11.76238       108.78484      104.49615      103.62292      1.3781094     -1.7353045     -1.2555385    
        40   174.93045     -11.762075      117.54644      113.45769      112.42305      1.3352791     -1.7192761     -1.2166893    
        41   174.9414      -11.761808      125.88723      122.00748      120.80826      1.2896823     -1.702267      -1.1698206    
        42   175.31168     -11.761583      133.77999      130.11604      128.75122      1.2420361     -1.6840161     -1.1155744    
        43   176.03558     -11.761402      141.2013       137.75764      136.22686      1.1919013     -1.6649869     -1.0538721    
        44   177.10443     -11.761265      148.12768      144.90843      143.2119       1.1395075     -1.6450109     -0.98484976   
        45   178.50667     -11.761176      154.53633      151.54868      149.68563      1.0864069     -1.6234757     -0.90947693   
        46   180.22785     -11.761133      160.40864      157.65915      155.63072      1.0330045     -1.6002866     -0.82777309   
        47   182.25083     -11.761138      165.72761      163.21986      161.02839      0.97866864    -1.5752326     -0.73950578   
        48   184.55588     -11.761191      170.47813      168.21593      165.86465      0.92337346    -1.5482468     -0.64475108   
        49   187.12083     -11.76129       174.64789      172.6342       170.12668      0.86735761    -1.5195256     -0.54439119   
        50   189.92125     -11.761435      178.22785      176.46528      173.80589      0.81054791    -1.4883898     -0.43909322   
        51   192.93063     -11.761625      181.21029      179.70032      176.89456      0.75322759    -1.4551099     -0.32869485   
        52   196.1207      -11.761856      183.59137      182.33675      179.38692      0.69557089    -1.4197446     -0.21366168   
        53   199.46164     -11.762127      185.37047      184.37015      181.2805       0.63726172    -1.3826625     -0.094445359  
        54   202.92245     -11.762434      186.5454       185.79909      182.5747       0.57935135    -1.3435113      0.028523107  
        55   206.47126     -11.762774      187.11873      186.6251       183.27142      0.52226852    -1.3021748      0.15467743   
        56   210.07562     -11.763144      187.09364      186.85102      183.37455      0.46615624    -1.2590259      0.2831245    
        57   213.70289     -11.76354       186.47656      186.48275      182.89028      0.41123107    -1.2141779      0.41327914   
        58   217.32055     -11.763957      185.27596      185.52927      181.827        0.35795149    -1.1678487      0.54437865   
        59   220.89654     -11.764391      183.50466      184.0025       180.19528      0.30619257    -1.1198642      0.67561742   
        60   224.39964     -11.764837      181.17349      181.91167      178.00672      0.25657947    -1.0707662      0.80677934   
        61   227.79974     -11.76529       178.29588      179.27058      175.27504      0.20917389    -1.020853       0.93725124   
        62   231.06828     -11.765747      174.88749      176.09518      172.01368      0.16375082    -0.97099892     1.0657055    
        63   234.17842     -11.766201      170.96581      172.40059      168.24212      0.12096746    -0.92050757     1.1926498    
        64   237.10536     -11.766649      166.5495       168.2063       163.97816      0.080589608   -0.86959396     1.3174338    
        65   239.82657     -11.767086      161.65859      163.53189      159.24161      0.042502974   -0.81855914     1.4394986    
        66   242.32203     -11.767508      156.31434      158.39856      154.05334      0.0068079634  -0.76761498     1.5584945    
        67   244.57435     -11.76791       150.53905      152.82859      148.43529     -0.026178902   -0.71697992     1.674353     
        68   246.56901     -11.768288      144.3559       146.84477      142.41056     -0.056613812   -0.6671588      1.7867793    
        69   248.29439     -11.768639      137.78906      140.47067      136.0018      -0.084482363   -0.61854841     1.8950738    
        70   249.74185     -11.768959      130.8631       133.73104      129.23378     -0.10975225    -0.57093991     1.9993102    
        71   250.90577     -11.769246      123.60432      126.65316      122.1321      -0.1332241     -0.52457708     2.0988894    
        72   251.78352     -11.769497      116.03751      119.26055      114.72225     -0.15421587    -0.47978655     2.1935274    
        73   252.37538     -11.76971       108.18704      111.57965      107.02859     -0.17201677    -0.43702241     2.2832161    
        74   252.68452     -11.769882      100.08212      103.63626      99.077376     -0.18804631    -0.3960616      2.3681189    
        75   252.7168      -11.770013      91.748132      95.456293      90.894344     -0.20213111    -0.3564475      2.4480148    
        76   252.48065     -11.770101      83.211276      87.066488      82.505733     -0.2144706     -0.31815889     2.5226052    
        77   251.98691     -11.770146      74.497997      78.492795      73.937486     -0.22507289    -0.28124692     2.5920165    
        78   251.24859     -11.770149      65.634625      69.761649      65.215398     -0.23402611    -0.24569548     2.6563021    
        79   250.2807      -11.770108      56.647228      60.899025      56.365218     -0.24150222    -0.21143502     2.7153745    
        80   249.09999     -11.770025      47.561544      51.930675      47.412719     -0.24764554    -0.1784403      2.7691693    
        81   247.72474     -11.769901      38.408052      42.882791      38.383294     -0.25333616    -0.14729465     2.8182487    
        82   246.17457     -11.769738      29.208897      33.783871      29.301902     -0.25900283    -0.11714963     2.8626026    
        83   244.47007     -11.769536      19.987632      24.657994      20.192474     -0.26402539    -0.087721182    2.9018416    
        84   242.63262     -11.769299      10.768314      15.526836      11.078884     -0.26846425    -0.058773478    2.9356906    
        85   240.68412     -11.769029      1.5743624      6.4133291      1.9850006     -0.27269542    -0.030024001    2.9640391    
        86   238.64674     -11.768727     -7.5708201     -2.6590217     -7.0659715     -0.27681346    -0.0012600768   2.9867085    
        87   236.54276     -11.768398     -16.644506     -11.667243     -16.052003     -0.28089234     0.027742032    3.0040327    
        88   234.3943      -11.768044     -25.624982     -20.590033     -24.951205     -0.28505016     0.057151423    3.0159642    
        89   232.22317     -11.767668     -34.490678     -29.406142     -33.742332     -0.28945213     0.087134554    3.0224903    
        90   230.05066     -11.767274     -43.221365     -38.094548     -42.404753     -0.29388903     0.11827306     3.0236851    
        91   227.89738     -11.766865     -51.796971     -46.635196     -50.917962     -0.29838158     0.15100156     3.0196764    
        92   225.78314     -11.766445     -60.197156     -55.008839     -59.263156     -0.30294894     0.18516695     3.0100915    
        93   223.7268      -11.766018     -68.403931     -63.197037     -67.422085     -0.30818342     0.22139213     2.9948209    
        94   221.74611     -11.765587     -76.399574     -71.181578     -75.376582     -0.31396579     0.25972307     2.9736319    
        95   219.85766     -11.765155     -84.167648     -78.945537     -83.109747     -0.3202238      0.30021287     2.9466738    
        96   218.07678     -11.764727     -91.691585     -86.472424     -90.605061     -0.32708833     0.3430946      2.9138689    
        97   216.41745     -11.764306     -98.956112     -93.746505     -97.84675      -0.33448278     0.38836973     2.8751897    
        98   214.89227     -11.763895     -105.94665     -100.75283     -104.81975     -0.342311       0.43601182     2.8306227    
        99   213.51244     -11.763497     -112.64833     -107.47701     -111.50957     -0.35083582     0.48631244     2.780024     
       100   212.28773     -11.763117     -119.04744     -113.90353     -117.90217     -0.35957474     0.53911223     2.7225995    
Loop time of 4.67561 on 1 procs for 100 steps with 250 atoms

Performance: 1.848 ns/day, 12.988 hours/ns, 21.388 timesteps/s, 5.347 katom-step/s
50.0% CPU use with 1 MPI tasks x 1 OpenMP threads

MPI task timing breakdown:
Section |  min time  |  avg time  |  max time  |%varavg| %total
---------------------------------------------------------------
Pair    | 3.4936     | 3.4936     | 3.4936     |   0.0 | 74.72
Neigh   | 0.010368   | 0.010368   | 0.010368   |   0.0 |  0.22
Comm    | 0.0012055  | 0.0012055  | 0.0012055  |   0.0 |  0.03
Output  | 1.1682     | 1.1682     | 1.1682     |   0.0 | 24.98
Modify  | 0.0017246  | 0.0017246  | 0.0017246  |   0.0 |  0.04
Other   |            | 0.0005255  |            |       |  0.01

Nlocal:            250 ave         250 max         250 min
Histogram: 1 0 0 0 0 0 0 0 0 0
Nghost:           1479 ave        1479 max        1479 min
Histogram: 1 0 0 0 0 0 0 0 0 0
Neighs:              0 ave           0 max           0 min
Histogram: 1 0 0 0 0 0 0 0 0 0
FullNghs:        23138 ave       23138 max       23138 min
Histogram: 1 0 0 0 0 0 0 0 0 0

Total # of neighbors = 23138
Ave neighs/atom = 92.552
Neighbor list builds = 10
Dangerous builds not checked
Total wall time: 0:00:06
